LAMMPS (7 Aug 2019)
units lj
dimension 3
boundary p p p
atom_style atomic

lattice fcc 0.005
Lattice spacing in x,y,z = 9.28318 9.28318 9.28318

region simbox block 0 10 0 10 0 10
create_box 1 simbox
Created orthogonal box = (0 0 0) to (92.8318 92.8318 92.8318)
  1 by 2 by 5 MPI processor grid
create_atoms 1 box
Created 4000 atoms
  create_atoms CPU = 0.000395124 secs

mass 1 1.0
velocity all create 10 97432
pair_style sgcolloidal 2
pair_coeff 1 1 8 0.5
# pair_style lj/cut 3.0
# pair_coeff 1 1 1.0 1.0 3.0

# fix 1 all nve
fix 1 all nvt temp 0.4 0.4 100.0
timestep 0.01

# compute orientorder all orientorder/atom degrees 1 6 components 6 cutoff 1.2
# compute makesense all orientorder/atom degrees 1 6 cutoff 1.2

# compute wolde05 all coord/atom orientorder orient 0.5
# compute wolde09 all coord/atom orientorder orient 0.9
# dump 1 all custom 10 wolde.dump c_wolde[*]
# dump wolde all custom 100 lj.dump id type x y z vx vy vz c_wolde05[*] c_wolde09[*]
# dump makesense all custom 100 makesense.dump id c_makesense[*]
# dump orderparam all custom 100 orderparam.dump id x y z vx vy vz c_orientation[*]
# run 10000
dump positions all custom 100 pos2.bin id x y z vx vy vz
thermo 400
run 10000
Neighbor list info ...
  update every 1 steps, delay 10 steps, check yes
  max neighbors/atom: 2000, page size: 100000
  master list distance cutoff = 3.1833
  ghost atom cutoff = 3.1833
  binsize = 1.59165, bins = 59 59 59
  1 neighbor lists, perpetual/occasional/extra = 1 0 0
  (1) pair sgcolloidal, perpetual
      attributes: half, newton on
      pair build: half/bin/atomonly/newton
      stencil: half/bin/3d/newton
      bin: standard
Per MPI rank memory allocation (min/avg/max) = 3.491 | 3.495 | 3.5 Mbytes
Step Temp E_pair E_mol TotEng Press 
       0           10            0            0     14.99625    0.0499875 
     400    9.6968919  0.013939927            0    14.555641  0.048840251 
     800    9.3313309 0.0086603286            0    14.002157  0.046711541 
    1200    8.8859037 0.0043152618            0    13.329839  0.044430187 
    1600    8.4323389  0.021061294            0    12.666407  0.042691177 
    2000    7.9736404  0.014458503            0    11.971929  0.040168859 
    2400     7.533265 0.0098561964            0    11.306929  0.037834983 
    2800    7.1139052  0.011733633            0    10.679924  0.035787825 
    3200      6.70579    0.0126581            0    10.068828  0.033762673 
    3600    6.3276053 0.0098496231            0    9.4988848  0.031843234 
    4000    5.9652626  0.013617305            0    8.9592743  0.030073706 
    4400    5.6292406 0.0043420031            0     8.446092  0.028181734 
    4800    5.3119916 0.0051815418            0     7.971177  0.026649611 
    5200    5.0118235 0.0068228352            0    7.5226786  0.025202014 
    5600    4.7342176 0.0064919403            0     7.106043  0.023767403 
    6000    4.4719521 0.0081728101            0     6.714424  0.022492525 
    6400    4.2262881  0.011357211            0    6.3492046  0.021301536 
    6800    4.0067475 0.0036614729            0    6.0122802  0.020051853 
    7200    3.7933698 0.0065816794            0    5.6952138   0.01905994 
    7600    3.5977863 0.0037697656            0       5.3991  0.018029387 
    8000    3.4126032 0.0050594693            0    5.1226846   0.01712273 
    8400    3.2386022 0.0066998661            0    4.8633887  0.016251673 
    8800    3.0781115 0.0049046546            0    4.6209177  0.015434158 
    9200    2.9235631   0.01064781            0    4.3948962  0.014858376 
    9600    2.7862341 0.0046506987            0    4.1829571  0.013993541 
   10000    2.6534096 0.0050265716            0     3.984146  0.013343019 
Loop time of 0.690861 on 10 procs for 10000 steps with 4000 atoms

Performance: 12506129.120 tau/day, 14474.686 timesteps/s
98.2% CPU use with 10 MPI tasks x no OpenMP threads

MPI task timing breakdown:
Section |  min time  |  avg time  |  max time  |%varavg| %total
---------------------------------------------------------------
Pair    | 0.10489    | 0.12227    | 0.13299    |   2.4 | 17.70
Neigh   | 0.092585   | 0.11292    | 0.12326    |   2.7 | 16.34
Comm    | 0.22591    | 0.25829    | 0.29168    |   4.6 | 37.39
Output  | 0.0098433  | 0.01799    | 0.028171   |   4.2 |  2.60
Modify  | 0.14043    | 0.16264    | 0.18631    |   3.8 | 23.54
Other   |            | 0.01676    |            |       |  2.43

Nlocal:    400 ave 420 max 379 min
Histogram: 1 1 1 2 0 0 1 2 1 1
Nghost:    246 ave 267 max 223 min
Histogram: 2 0 0 1 0 2 1 3 0 1
Neighs:    131.7 ave 156 max 108 min
Histogram: 2 1 0 0 1 3 1 0 0 2

Total # of neighbors = 1317
Ave neighs/atom = 0.32925
Neighbor list builds = 1000
Dangerous builds = 1000
unfix 1
fix 1 all nvt temp 0.4 0.2 10.0
run 100000
Per MPI rank memory allocation (min/avg/max) = 3.492 | 3.501 | 3.512 Mbytes
Step Temp E_pair E_mol TotEng Press 
   10000    2.6534096 0.0050265716            0     3.984146  0.013343019 
   10400    2.1374057 0.0038279082            0    3.2091349  0.010732385 
   10800    1.6267466 0.0032463293            0    2.4427562 0.0081904341 
   11200    1.2476182 0.0036847624            0    1.8746442 0.0062737022 
   11600   0.97846182 0.0019470583            0    1.4692729 0.0048935114 
   12000   0.78575588 0.0004048925            0     1.178744 0.0038776149 
   12400   0.64596341  0.000546515            0   0.96924939 0.0032339351 
   12800   0.54474829 -0.00042023407            0   0.81649792 0.0026760998 
   13200   0.47122784 -0.0025317729            0   0.70413328 0.0023631641 
   13600   0.41703411 -0.0023508952            0   0.62304388 0.0020608436 
   14000   0.37909537 -0.0024960846            0   0.56600481 0.0018824623 
   14400   0.35644862 -0.0048985021            0   0.52964076 0.0017263202 
   14800   0.34430516 -0.0035132647            0   0.51281535 0.0016551826 
   15200   0.34645769 -0.0043643759            0   0.51519223 0.0016690548 
   15600   0.35950776 -0.0037335669            0   0.53539326 0.0017752138 
   16000   0.38103245 -0.0046297458            0   0.56677604 0.0018523845 
   16400   0.40258604 -0.0031430019            0   0.60058509 0.0019818711 
   16800   0.41887162 -0.0038490044            0   0.62430135 0.0020765886 
   17200   0.42369193 -0.003418738            0   0.63196028  0.002076595 
   17600   0.41631479 -0.0032632574            0   0.62105281 0.0020439572 
   18000   0.39861075 -0.0025606557            0   0.59520599 0.0019976014 
   18400   0.37949982 -0.0037918774            0   0.56531555 0.0018615629 
   18800   0.36341502 -0.0036523937            0   0.54133386 0.0017455439 
   19200   0.35434787 -0.0041545924            0   0.52723433 0.0016985301 
   19600   0.35281368 -0.003379299            0   0.52570892 0.0017493926 
   20000   0.36042708 -0.004248651            0   0.53625681  0.001770412 
   20400   0.37157301 -0.002254663            0   0.55496551 0.0018205392 
   20800   0.38659273 -0.0030556531            0   0.57668847 0.0018839192 
   21200   0.39811521 -0.0030277185            0    0.5939958 0.0019299646 
   21600   0.40357834 -0.003415269            0   0.60180089 0.0019622886 
   22000   0.39886254 -0.0019534708            0   0.59619076 0.0020078095 
   22400   0.38895361 -0.0046088051            0   0.57867575 0.0018952264 
   22800   0.37356436 -0.0039586617            0   0.55624779 0.0018560009 
   23200   0.36015352 -0.0025338986            0   0.53756133 0.0017805159 
   23600   0.35260775 -0.0045118402            0   0.52426755 0.0017296319 
   24000   0.35111346 -0.005470575            0   0.52106795 0.0017147462 
   24400   0.35474408 -0.0039182592            0   0.52806483 0.0017318453 
   24800   0.36312607 -0.0037389592            0   0.54081398 0.0017920163 
   25200   0.37425242 -0.0030293145            0   0.55820896 0.0018405964 
   25600    0.3831548 -0.0012386702            0   0.57334984 0.0018689294 
   26000   0.38992604 -0.0041049749            0   0.58063786   0.00191717 
   26400   0.38841049 -0.0039753516            0   0.57849473  0.001888252 
   26800    0.3785163 -0.0024902978            0   0.56514221 0.0018787009 
   27200   0.36749773 -0.0031684971            0   0.54794028 0.0017970585 
   27600   0.35588536 -0.0037744437            0   0.52992014 0.0017578591 
   28000    0.3476165 -0.0040466955            0    0.5172477 0.0016869738 
   28400   0.34405218 -0.0034947885            0   0.51245446  0.001685404 
   28800   0.34707188 -0.0043343009            0   0.51614337 0.0016901213 
   29200   0.35355487 -0.0040637852            0   0.52613594 0.0017239878 
   29600   0.36257181 -0.0034457237            0   0.54027603 0.0017945252 
   30000   0.37210781 -0.0034578792            0    0.5545643 0.0018437152 
   30400   0.37771208 -0.0043907167            0   0.56203576 0.0018359569 
   30800   0.37696841 -0.0044250566            0    0.5608862  0.001882415 
   31200   0.36935256 -0.0030960635            0   0.55079427 0.0018352464 
   31600   0.36030154 -0.0047801806            0   0.53553701 0.0018046352 
   32000   0.34980886 -0.0048828336            0   0.51969928 0.0016970843 
   32400   0.34218552 -0.005357006            0   0.50779295 0.0016656957 
   32800   0.33815198 -0.0054851181            0   0.50161604 0.0016191145 
   33200    0.3390086 -0.0052231029            0   0.50316266 0.0016716217 
   33600   0.34445431 -0.005469363            0   0.51108293 0.0016528341 
   34000    0.3519836 -0.0043536409            0   0.52348976 0.0017080901 
   34400   0.36016326 -0.0041705019            0   0.53593933 0.0017352707 
   34800     0.364788 -0.0031339742            0   0.54391124 0.0018020653 
   35200   0.36574387 -0.0036499495            0    0.5448287 0.0017596051 
   35600   0.36088837 -0.0041867951            0   0.53701042 0.0017488703 
   36000   0.35344524 -0.0052214271            0   0.52481389 0.0017406956 
   36400   0.34404196 -0.0060573295            0   0.50987659 0.0016457885 
   36800   0.33581817 -0.0056686711            0   0.49793265 0.0016255879 
   37200     0.331478 -0.0065631641            0   0.49052953 0.0015950256 
   37600   0.33045101 -0.0047258795            0   0.49082671 0.0015963427 
   38000   0.33546662 -0.0056828506            0   0.49739128 0.0016764158 
   38400    0.3415526 -0.0047018267            0     0.507499 0.0016546857 
   38800   0.34923529 -0.0053363537            0   0.51838561  0.001704999 
   39200    0.3551341 -0.0060956488            0   0.52647232  0.001710537 
   39600   0.35493184 -0.0046232018            0   0.52764146 0.0017795259 
   40000   0.35133701 -0.0048773595            0    0.5219964 0.0016887953 
   40400    0.3450678 -0.0056114452            0   0.51186086 0.0016980988 
   40800   0.33716886 -0.0069481471            0   0.49867871 0.0016595844 
   41200   0.32913485 -0.0064416216            0   0.48713722 0.0016050194 
   41600   0.32389656 -0.0055760081            0   0.48014737 0.0015847836 
   42000   0.32320086 -0.0059418893            0    0.4787382 0.0015454177 
   42400   0.32636508 -0.0064430269            0    0.4829822 0.0015999904 
   42800    0.3324199 -0.0068762462            0   0.49162894 0.0016473434 
   43200   0.33783543 -0.0052129049            0   0.50141356   0.00164393 
   43600   0.34344726 -0.0064527241            0   0.50858937 0.0016868232 
   44000   0.34446035 -0.0045495624            0   0.51201179 0.0016735987 
   44400   0.34225611 -0.0047390606            0   0.50851676 0.0016839348 
   44800   0.33727445 -0.0054490195            0   0.50033618 0.0016344393 
   45200   0.32965575 -0.0056948538            0   0.48866515 0.0016086385 
   45600   0.32302126 -0.0062137519            0     0.478197 0.0015747443 
   46000   0.31698416 -0.0054386862            0   0.46991868 0.0015229863 
   46400   0.31640137 -0.0071795687            0   0.46730384 0.0015462343 
   46800   0.31721843 -0.0059822361            0   0.46972646 0.0014963161 
   47200   0.32135538 -0.0059297736            0   0.47598279 0.0015657167 
   47600   0.32710097 -0.0057565385            0   0.48477226 0.0015756416 
   48000   0.33193701 -0.0055198951            0   0.49226114 0.0016212678 
   48400   0.33469957 -0.0056081864            0   0.49631565 0.0016071281 
   48800   0.33384117 -0.0059469205            0   0.49468964 0.0016234017 
   49200   0.32915446 -0.0056009006            0   0.48800735 0.0015968924 
   49600   0.32165653 -0.0051081428            0   0.47725603 0.0015406021 
   50000   0.31489214 -0.0053211858            0   0.46689895 0.0015197742 
   50400   0.30964704 -0.0053163556            0   0.45903808 0.0015434242 
   50800   0.30680678 -0.0041195355            0   0.45597558 0.0015240537 
   51200   0.30845383 -0.0051583189            0   0.45740676 0.0014837432 
   51600   0.31186698 -0.0039846258            0   0.46369889  0.001539773 
   52000   0.31740341 -0.0041557317            0   0.47183035 0.0015363957 
   52400   0.32263732 -0.0050898383            0   0.47874515 0.0015831174 
   52800   0.32510725 -0.0047671875            0   0.48277178 0.0015961319 
   53200   0.32417889 -0.0046085024            0   0.48153827 0.0015861709 
   53600   0.32029286 -0.0055948698            0   0.47472431 0.0015715815 
   54000   0.31377814 -0.0055493546            0   0.46500019 0.0015246614 
   54400   0.30624329 -0.0044089287            0   0.45484117 0.0014729073 
   54800   0.30100352 -0.004807541            0   0.44658486  0.001482199 
   55200   0.29911492 -0.005714856            0   0.44284536 0.0014650132 
   55600   0.29871747 -0.0042658018            0   0.44369838 0.0014579954 
   56000   0.30374309 -0.0061980134            0   0.44930272 0.0014797839 
   56400    0.3078103 -0.0048680819            0   0.45673194   0.00149702 
   56800   0.31254917 -0.0050756983            0   0.46363085 0.0015208188 
   57200   0.31598428 -0.0057959763            0   0.46806195 0.0015320713 
   57600   0.31437769 -0.0038158712            0   0.46763277 0.0015652764 
   58000   0.31181531 -0.0052290335            0     0.462377 0.0015406174 
   58400    0.3059066 -0.0056279911            0    0.4531172 0.0014490808 
   58800   0.29932611 -0.0057747896            0   0.44310213 0.0014562588 
   59200   0.29437859 -0.006564339            0   0.43489315 0.0014212449 
   59600   0.29084604 -0.005531819            0   0.43062817 0.0013931831 
   60000   0.29074609 -0.0055224986            0   0.43048761 0.0014124168 
   60400   0.29342735 -0.0052840726            0   0.43474692 0.0014143961 
   60800   0.29880431 -0.0057570981            0   0.44233731 0.0014377506 
   61200   0.30255686 -0.0053905878            0   0.44833125 0.0014808346 
   61600   0.30557783 -0.0048199382            0   0.45343221 0.0014987262 
   62000   0.30564142 -0.0044005487            0   0.45394696 0.0015147968 
   62400   0.30308414 -0.0045160462            0    0.4499965 0.0014909301 
   62800   0.29829763 -0.0054805211            0   0.44185406 0.0014751888 
   63200   0.29242217 -0.0049892487            0   0.43353434 0.0014458769 
   63600   0.28728417 -0.006185504            0   0.42463301 0.0014062068 
   64000   0.28409487 -0.0068180126            0   0.41921776 0.0013986251 
   64400   0.28227651 -0.0060737617            0   0.41723515 0.0013652249 
   64800   0.28311135 -0.0053152035            0   0.41924566  0.001374566 
   65200   0.28738203 -0.0056284455            0   0.42533683 0.0014270501 
   65600   0.29182466 -0.0059490385            0   0.43167852  0.001449089 
   66000   0.29505081 -0.0053953917            0   0.43707018 0.0014118468 
   66400   0.29601563 -0.0046122178            0   0.43930022 0.0014535231 
   66800   0.29465902 -0.0055140707            0   0.43636397 0.0014322114 
   67200   0.29060992 -0.0057853689            0   0.43002054 0.0014375205 
   67600   0.28633157 -0.0068303089            0   0.42255967 0.0014020993 
   68000   0.28011967 -0.0063279698            0    0.4137465 0.0013744898 
   68400   0.27493885 -0.0050496644            0   0.40725551 0.0013599623 
   68800     0.273874 -0.0064621521            0   0.40424615 0.0013266985 
   69200   0.27476578 -0.0066776705            0   0.40536797 0.0013327334 
   69600   0.27728881 -0.006357277            0   0.40947195 0.0013431091 
   70000   0.28147398 -0.0063803946            0   0.41572502 0.0013706711 
   70400    0.2838873 -0.0045715811            0   0.42115292 0.0013342973 
   70800   0.28669348 -0.005387505            0   0.42454521 0.0013987666 
   71200   0.28542116 -0.005270684            0   0.42275403 0.0013676992 
   71600   0.28318077 -0.0057974911            0   0.41886746 0.0013529779 
   72000   0.27726972 -0.0048792922            0   0.41092132 0.0013058547 
   72400   0.27280572 -0.0055250629            0   0.40358122 0.0013184491 
   72800   0.26795577 -0.0056525867            0   0.39618059 0.0013151245 
   73200   0.26557953 -0.0055935614            0   0.39267613 0.0013202358 
   73600   0.26483069 -0.0055746933            0   0.39157203  0.001298043 
   74000   0.26852393 -0.0071127245            0   0.39557248 0.0012973264 
   74400   0.27007317 -0.0049198209            0   0.40008866 0.0013014918 
   74800   0.27402162 -0.005302093            0   0.40562758 0.0013411837 
   75200   0.27681687 -0.0059101691            0   0.40921133 0.0013227936 
   75600   0.27701945 -0.0060018492            0   0.40942345  0.001377221 
   76000   0.27414366 -0.0059909537            0   0.40512174 0.0013110831 
   76400   0.27050624 -0.0071107101            0   0.39854721 0.0012456858 
   76800   0.26505114 -0.0068209527            0   0.39065637 0.0012907442 
   77200   0.26024609 -0.0073543202            0   0.38291723 0.0012292976 
   77600   0.25718773 -0.0067580573            0   0.37892709 0.0012454467 
   78000   0.25607372 -0.0063693943            0   0.37764516 0.0012526201 
   78400   0.25796688 -0.0065433799            0   0.38031021 0.0012031056 
   78800   0.26208828 -0.007700129            0     0.385334 0.0012553038 
   79200   0.26458196 -0.0068391899            0   0.38993453 0.0012653929 
   79600   0.26727673 -0.0062970003            0   0.39451787 0.0013021373 
   80000   0.26883142 -0.0080052453            0   0.39514107  0.001275265 
   80400   0.26632886 -0.0083911273            0   0.39100229 0.0013114318 
   80800   0.26140776 -0.0080716078            0   0.38394201 0.0012650136 
   81200   0.25534238 -0.0063115586            0   0.37660626 0.0012466324 
   81600   0.25197108 -0.007783928            0    0.3700782 0.0012086379 
   82000   0.24966237 -0.0078433796            0   0.36655655 0.0011809494 
   82400   0.24889416 -0.0073011421            0   0.36594676 0.0012097622 
   82800   0.25071021 -0.0082960627            0   0.36767524 0.0011814992 
   83200   0.25238262 -0.0065648823            0   0.37191441 0.0012032776 
   83600   0.25533981 -0.0065173084            0   0.37639665 0.0012253299 
   84000   0.25792186 -0.0067544424            0   0.38003162 0.0012209921 
   84400   0.25812972 -0.0062925523            0   0.38080523  0.001243409 
   84800   0.25683358 -0.007280692            0   0.37787337 0.0012443835 
   85200   0.25323738 -0.0080160048            0    0.3717451 0.0012325251 
   85600   0.24828217 -0.0082170222            0   0.36411312 0.0011987564 
   86000   0.24392784 -0.0078714734            0   0.35792882 0.0011834513 
   86400   0.24026716 -0.0090954516            0   0.35121518 0.0011582092 
   86800   0.23957052 -0.0089544163            0   0.35031152 0.0011362184 
   87200   0.23953262 -0.0084355478            0   0.35077356 0.0011321939 
   87600   0.24272171 -0.0088330566            0   0.35515849 0.0011451982 
   88000   0.24482606 -0.0073377337            0   0.35980954 0.0011914462 
   88400   0.24867449 -0.0084118596            0   0.36450662 0.0011731438 
   88800   0.24937163 -0.0084647575            0   0.36549918 0.0012090783 
   89200   0.24918227 -0.0096199297            0   0.36406003 0.0011599366 
   89600   0.24464409 -0.0079444248            0   0.35892996 0.0011765588 
   90000   0.24023821 -0.0081956765            0   0.35207155 0.0011455445 
   90400   0.23583096 -0.0087636124            0   0.34489439 0.0010930364 
   90800   0.23283448 -0.0097015738            0   0.33946283 0.0010851819 
   91200    0.2312846 -0.0091017542            0   0.33773842 0.0010945622 
   91600    0.2319102 -0.0091481081            0   0.33863022 0.0011173161 
   92000   0.23294493 -0.0069151465            0   0.34241489 0.0011308284 
   92400   0.23743194 -0.0092930391            0   0.34676583 0.0011184426 
   92800   0.24030448 -0.0091309252            0   0.35123568 0.0011327983 
   93200   0.24069059 -0.0086818357            0   0.35226379 0.0011842645 
   93600   0.23932942 -0.0087839271            0   0.35012046 0.0011315626 
   94000   0.23619658 -0.0090956378            0   0.34511066 0.0011578018 
   94400    0.2311458 -0.0083473834            0   0.33828464 0.0010919887 
   94800   0.22649069 -0.0081226974            0   0.33152841 0.0011124374 
   95200   0.22396445 -0.0094245709            0   0.32643812 0.0010644582 
   95600   0.22281369 -0.010401218            0   0.32373576 0.0010775375 
   96000   0.22189608 -0.0084606326            0   0.32430027  0.001050146 
   96400   0.22385224 -0.008492224            0   0.32720218 0.0010634781 
   96800   0.22701641 -0.0090713631            0   0.33136813 0.0010662537 
   97200   0.22968015 -0.0088176263            0   0.33561647 0.0010721019 
   97600   0.23129081 -0.0094917665            0   0.33735771 0.0011172276 
   98000   0.23014464 -0.008782182            0   0.33634847 0.0010956472 
   98400   0.22711115 -0.0077492629            0   0.33283229 0.0010974513 
   98800   0.22250933 -0.0075951855            0   0.32608536 0.0010759513 
   99200   0.21959209 -0.0097331081            0   0.31957269 0.0010287572 
   99600     0.215877 -0.0090734051            0   0.31466114 0.0010064202 
  100000   0.21415613 -0.0097897036            0   0.31136419 0.0010145476 
  100400   0.21387412 -0.0094312131            0   0.31129976 0.00099823104 
  100800   0.21543359 -0.0090088756            0   0.31406073 0.00099470868 
  101200   0.21857559 -0.010343819            0    0.3174376 0.0010348943 
  101600   0.22088642 -0.0099335209            0   0.32131328 0.0010647578 
  102000   0.22048261 -0.007926154            0   0.32271508 0.0010665612 
  102400   0.22090821 -0.009675971            0   0.32160351 0.0010778118 
  102800   0.21832793 -0.0094407908            0   0.31796924 0.0010429176 
  103200   0.21494362 -0.0090861138            0   0.31324871 0.0010355744 
  103600    0.2118061  -0.01054029            0   0.30708944 0.0010147697 
  104000   0.20766269 -0.0094267177            0   0.30198945 0.00098911786 
  104400   0.20557658 -0.0096920487            0   0.29859572 0.00098199389 
  104800   0.20606111 -0.010357038            0   0.29865736 0.00098936451 
  105200   0.20747154 -0.011040165            0   0.30008934 0.00094601271 
  105600   0.20891746 -0.010433468            0   0.30286438 0.00097515516 
  106000   0.21044261 -0.010158059            0   0.30542693 0.00095853051 
  106400   0.21144438 -0.010095517            0   0.30699176 0.00096258875 
  106800   0.21076136 -0.0099276369            0   0.30613537 0.00099213132 
  107200   0.20918339 -0.010213037            0   0.30348361 0.00097228197 
  107600   0.20646944 -0.010997024            0   0.29862971 0.00094688652 
  108000   0.20297921 -0.011221904            0   0.29317079 0.00093183951 
  108400   0.20010144 -0.010601574            0   0.28947554 0.00096555041 
  108800   0.19814006 -0.010922409            0   0.28621338 0.00093277532 
  109200   0.19719192 -0.010739678            0   0.28497425 0.00090326157 
  109600   0.19836664 -0.010762776            0    0.2867128 0.00093486494 
  110000   0.19998536 -0.010554257            0   0.28934879 0.00095115159 
Loop time of 6.59439 on 10 procs for 100000 steps with 4000 atoms

Performance: 13102046.909 tau/day, 15164.406 timesteps/s
97.6% CPU use with 10 MPI tasks x no OpenMP threads

MPI task timing breakdown:
Section |  min time  |  avg time  |  max time  |%varavg| %total
---------------------------------------------------------------
Pair    | 1.0477     | 1.1581     | 1.2798     |   7.4 | 17.56
Neigh   | 0.90999    | 1.0226     | 1.1243     |   6.3 | 15.51
Comm    | 2.2536     | 2.4095     | 2.5936     |   8.2 | 36.54
Output  | 0.13424    | 0.21103    | 0.29355    |  10.8 |  3.20
Modify  | 1.4822     | 1.5991     | 1.8008     |   8.9 | 24.25
Other   |            | 0.1941     |            |       |  2.94

Nlocal:    400 ave 437 max 379 min
Histogram: 2 2 1 2 0 1 1 0 0 1
Nghost:    255.7 ave 282 max 210 min
Histogram: 1 0 0 0 1 2 2 0 3 1
Neighs:    153.7 ave 213 max 124 min
Histogram: 1 1 5 0 2 0 0 0 0 1

Total # of neighbors = 1537
Ave neighs/atom = 0.38425
Neighbor list builds = 10000
Dangerous builds = 10000
unfix 1
fix 1 all nvt temp 0.2 0.07 10.0
run 1000000
Per MPI rank memory allocation (min/avg/max) = 3.492 | 3.501 | 3.512 Mbytes
Step Temp E_pair E_mol TotEng Press 
  110000   0.19998536 -0.010554257            0   0.28934879 0.00095115159 
  110400   0.19986484 -0.010431907            0    0.2892904 0.00092749439 
  110800   0.19963467  -0.00999746            0   0.28937968 0.00095038307 
  111200   0.20048161 -0.011340533            0    0.2893067  0.000962432 
  111600    0.1995888 -0.011301851            0    0.2880065 0.00093920898 
  112000   0.19864737 -0.011493567            0   0.28640299 0.00094834661 
  112400   0.19620474 -0.010054503            0   0.28417903 0.00089446389 
  112800   0.19536301 -0.010458211            0   0.28251304 0.00096431577 
  113200   0.19699648 -0.011465519            0   0.28395532 0.00094084088 
  113600   0.19845346 -0.011871069            0    0.2857347 0.00094831719 
  114000   0.19999394 -0.010927994            0   0.28898791 0.00096690042 
  114400   0.20292866 -0.011908768            0   0.29240812  0.000973043 
  114800   0.20269578 -0.010785801            0   0.29318186 0.00093367493 
  115200   0.20338574 -0.012401323            0   0.29260101 0.0009619462 
  115600   0.20124282 -0.011450739            0   0.29033803 0.00096176223 
  116000   0.19913295 -0.011482313            0   0.28714244 0.0009368597 
  116400   0.19805865  -0.01217908            0   0.28483463 0.00091407278 
  116800   0.19708993 -0.011767811            0   0.28379318 0.00095729154 
  117200   0.19745586 -0.012135581            0   0.28397416 0.00091254265 
  117600   0.19808538 -0.012184122            0   0.28486967 0.00092571115 
  118000   0.19908021 -0.012284091            0   0.28626158 0.00095383988 
  118400   0.19899945 -0.011665854            0    0.2867587 0.00097022082 
  118800   0.19986968 -0.011330411            0   0.28839916 0.00097536312 
  119200   0.20046751 -0.011848708            0   0.28877738 0.0009542178 
  119600   0.19989491  -0.01116595            0   0.28860146 0.00092645066 
  120000   0.19938985 -0.010788502            0   0.28822151 0.00091243145 
  120400   0.19816296  -0.01105642            0   0.28611371 0.00096035387 
  120800   0.19646898 -0.011917187            0   0.28271261 0.00089857398 
  121200   0.19364259 -0.010984297            0   0.27940697 0.00091584872 
  121600   0.19379277 -0.011653121            0   0.27896336 0.00087507002 
  122000   0.19433556 -0.011922666            0    0.2795078 0.0009076291 
  122400   0.19622942 -0.011319102            0   0.28295145 0.00091397888 
  122800   0.19904088 -0.012144179            0    0.2863425 0.00094663916 
  123200   0.20088316 -0.011951886            0   0.28929752 0.00095003841 
  123600   0.20158369 -0.012210036            0   0.29008991 0.00096010074 
  124000   0.20070421 -0.011387197            0   0.28959385 0.00092695617 
  124400   0.20018576 -0.012293425            0   0.28791015 0.00092376816 
  124800   0.19884987 -0.012627329            0   0.28557291 0.00093882828 
  125200   0.19614566 -0.010652641            0   0.28349229 0.00095416517 
  125600   0.19650746 -0.012437969            0   0.28224952 0.00093153271 
  126000   0.19751986 -0.012826943            0   0.28337878 0.0009463297 
  126400   0.19733235 -0.012250022            0   0.28367451 0.00091602212 
  126800   0.19764128 -0.011132582            0   0.28525523 0.00093449439 
  127200   0.19836833 -0.012092774            0   0.28538534 0.00093319295 
  127600   0.19989641 -0.012433389            0   0.28733627 0.00092748118 
  128000   0.20003974 -0.012339715            0   0.28764488 0.00093682921 
  128400   0.19916691 -0.012223085            0   0.28645259 0.00093505307 
  128800   0.19659541 -0.011943432            0   0.28287596 0.00091312022 
  129200   0.19481208  -0.01287512            0   0.27926994 0.00090227229 
  129600   0.19372776 -0.012871841            0   0.27764716 0.00088821852 
  130000   0.19414748 -0.012945555            0   0.27820286 0.00087383907 
  130400   0.19439725 -0.011824135            0   0.27969884 0.0009121172 
  130800   0.19604331 -0.011518227            0   0.28247321 0.00090247293 
  131200   0.19944836 -0.013073343            0   0.28602441 0.00094301204 
  131600   0.19982304 -0.011491996            0   0.28816763 0.00095421369 
  132000     0.200455 -0.012620401            0   0.28798693 0.00091200515 
  132400   0.19971432 -0.012004508            0   0.28749209 0.00093746271 
  132800   0.19886947 -0.013143334            0    0.2850863 0.00094110074 
  133200   0.19650068 -0.013425496            0   0.28125183 0.00092842017 
  133600   0.19441677 -0.012793836            0   0.27875841 0.00089686103 
  134000   0.19343507 -0.011932467            0    0.2781476 0.00088667414 
  134400   0.19457492 -0.012989331            0   0.27880008 0.00088460145 
  134800   0.19654467 -0.014869695            0   0.27987361 0.00093414957 
  135200   0.19632703 -0.013124836            0   0.28129208 0.00090496475 
  135600    0.1969729 -0.013191391            0   0.28219409 0.00091122241 
  136000   0.19607298 -0.012241588            0   0.28179435 0.00091143635 
  136400     0.196787 -0.012457754            0   0.28264895 0.00091504407 
  136800   0.19703446 -0.012628035            0   0.28284976 0.00094906813 
  137200   0.19679102 -0.011601689            0   0.28351105 0.0009024536 
  137600   0.19764598 -0.012822414            0   0.28357244 0.00093719629 
  138000   0.19666342 -0.011878945            0   0.28304243 0.00090459166 
  138400   0.19610856 -0.012590931            0   0.28149837 0.00091638149 
  138800    0.1954395 -0.012949453            0   0.28013651 0.00090305382 
  139200    0.1933647 -0.011480165            0   0.27849437 0.0008916038 
  139600   0.19366039 -0.012286327            0   0.27813163 0.00092300204 
  140000   0.19386749 -0.011813264            0   0.27891527 0.00095519066 
  140400   0.19459426 -0.011984626            0   0.27983378 0.00089287256 
  140800   0.19642309 -0.011825685            0   0.28273528 0.00087100297 
  141200    0.1984693  -0.01209819            0   0.28553134 0.00091297375 
  141600   0.19987243 -0.011933556            0   0.28780013 0.00095130804 
  142000   0.19860758 -0.010292168            0   0.28754472 0.00089468491 
  142400   0.19732444 -0.010561101            0   0.28535156 0.00095281587 
  142800     0.195373 -0.010944348            0   0.28204189 0.00088181194 
  143200   0.19390577 -0.011870976            0   0.27891496 0.00090439043 
  143600   0.19205728 -0.011013531            0   0.27700037 0.00087810546 
  144000   0.19214716  -0.01154337            0   0.27660532 0.00092809081 
  144400   0.19266482 -0.011066167            0   0.27785881 0.0009006652 
  144800   0.19347142 -0.011219881            0    0.2789147 0.00090704635 
  145200   0.19543812 -0.011887526            0   0.28119637 0.00090109685 
  145600   0.19632676 -0.012241395            0   0.28217512 0.00091131253 
  146000   0.19744792 -0.013014173            0   0.28308366 0.00090540588 
  146400   0.19640245 -0.012070596            0   0.28245943 0.00087223536 
  146800    0.1963575 -0.011772281            0   0.28269033 0.00090789486 
  147200   0.19513208 -0.012670172            0   0.27995477 0.00091770344 
  147600   0.19325344 -0.013150846            0   0.27665684 0.0009016054 
  148000   0.19141821 -0.013657914            0   0.27339763 0.00086251817 
  148400   0.18968996 -0.013054214            0    0.2714096 0.00088483222 
  148800   0.18990404 -0.012734113            0   0.27205073 0.00090106599 
  149200   0.19226797 -0.013281405            0   0.27504845 0.00088332389 
  149600    0.1957479 -0.012779689            0   0.28076875 0.00094105245 
  150000   0.19721751 -0.012889017            0   0.28286329 0.00095105173 
  150400   0.19632748 -0.011546099            0    0.2828715 0.00089681104 
  150800    0.1960775 -0.012339835            0   0.28170288 0.0009272272 
  151200   0.19601258 -0.013316823            0   0.28062855 0.00091896076 
  151600   0.19416611 -0.013091749            0    0.2780846 0.00088593293 
  152000   0.19318012 -0.012438199            0   0.27725953 0.00092319189 
  152400   0.19231741 -0.012356263            0   0.27604773 0.0008928634 
  152800   0.19201832 -0.011889487            0   0.27606599 0.00088167196 
  153200   0.19310314  -0.01190374            0   0.27767855 0.00088399993 
  153600   0.19447481 -0.010601758            0   0.28103753  0.000901808 
  154000   0.19700662 -0.010945923            0   0.28449014 0.00092812658 
  154400   0.19848278 -0.011565716            0   0.28608402 0.00097458731 
  154800   0.19871127 -0.011961579            0   0.28603081 0.00091423863 
  155200   0.19786232 -0.012305886            0    0.2844134 0.00095024729 
  155600   0.19437238 -0.011130562            0   0.28035513 0.00089363002 
  156000   0.19316552  -0.01195244            0    0.2777234 0.00088930462 
  156400   0.19180702 -0.011336224            0   0.27630238 0.00093116249 
  156800   0.19234842 -0.011947991            0    0.2765025 0.00090568713 
  157200    0.1920699 -0.010855795            0   0.27717703 0.0008904789 
  157600   0.19360627 -0.011903335            0   0.27843347 0.00092517054 
  158000   0.19447961 -0.011602411            0   0.28004407 0.00088433356 
  158400   0.19531428 -0.011864924            0   0.28103325 0.00092134128 
  158800   0.19553159 -0.012127189            0   0.28109687 0.00090676245 
  159200   0.19560856 -0.011499733            0   0.28183976 0.00092962711 
  159600   0.19372701 -0.010928586            0   0.27958929 0.00090061758 
  160000   0.19203433 -0.011118468            0   0.27686101 0.00091516436 
  160400   0.19015752 -0.011074696            0   0.27409027 0.00091055475 
  160800   0.18850038  -0.01089481            0   0.27178508 0.00089069454 
  161200   0.18889186 -0.011915891            0   0.27135106 0.00085985314 
  161600   0.19121815 -0.012544494            0   0.27421103 0.00087214551 
  162000   0.19442133 -0.012406059            0   0.27915304 0.00089312628 
  162400   0.19554515  -0.01122626            0   0.28201814 0.00092329757 
  162800   0.19679484 -0.012178122            0   0.28294034 0.00093482759 
  163200   0.19648806 -0.012146348            0   0.28251207 0.00096322622 
  163600   0.19560515  -0.01225086            0   0.28108351 0.00090671819 
  164000   0.19458727 -0.013269559            0   0.27853837 0.00090319439 
  164400    0.1925019 -0.012258303            0   0.27642237 0.00088296723 
  164800   0.19171508 -0.012622395            0   0.27487834 0.00090467462 
  165200   0.19109755 -0.012664541            0   0.27391012 0.00087214968 
  165600   0.19140791 -0.013263957            0   0.27377613 0.00084987191 
  166000   0.19282548 -0.014020496            0   0.27514541 0.00088227087 
  166400   0.19275917 -0.012271438            0   0.27679503 0.00085697295 
  166800   0.19453722 -0.012202974            0   0.27952991 0.00090894563 
  167200   0.19649711 -0.012001163            0   0.28267081 0.00091615243 
  167600   0.19909532 -0.012347153            0   0.28622116 0.00090311956 
  168000   0.19880862 -0.011733803            0   0.28640457 0.00091427404 
  168400   0.19705573 -0.012072229            0   0.28343747 0.00094022728 
  168800   0.19387863 -0.012422129            0   0.27832311 0.00092986781 
  169200   0.19131523 -0.011472382            0   0.27542872 0.00088764639 
  169600   0.19149225 -0.012819772            0    0.2743468 0.00089047144 
  170000   0.19089794 -0.012392563            0   0.27388277 0.00088602158 
  170400   0.19145071 -0.013468381            0   0.27363589 0.00088230128 
  170800   0.19259462 -0.014088329            0   0.27473137 0.00090870465 
  171200   0.19207435 -0.013284345            0   0.27475515 0.0008879909 
  171600   0.19213674 -0.012873625            0   0.27525944 0.00086181531 
  172000   0.19235139 -0.013028302            0   0.27542666 0.00084950498 
  172400   0.19214082 -0.012820149            0   0.27531902 0.00092886339 
  172800   0.19323419 -0.012829895            0   0.27694893 0.00089968938 
  173200   0.19246204 -0.012192956            0   0.27642793 0.0009102578 
  173600   0.19178995 -0.013481909            0   0.27413109 0.00088593967 
  174000   0.18999566 -0.013442301            0   0.27147994 0.00086279173 
  174400   0.18946707 -0.014533491            0   0.26959606 0.00087497013 
  174800   0.18737763 -0.012149204            0   0.26884698 0.00085707381 
  175200   0.18909449 -0.014225383            0   0.26934544 0.00092098878 
  175600   0.18973507 -0.013224569            0   0.27130688 0.0008689863 
  176000   0.19150282 -0.012690838            0   0.27449158 0.0008789039 
  176400   0.19488142 -0.013809839            0   0.27843922 0.00092745326 
  176800   0.19547751 -0.013342503            0   0.27980046 0.00090665763 
  177200   0.19518308 -0.013586093            0   0.27911533 0.00089113899 
  177600   0.19331507 -0.012465778            0   0.27743433 0.00088816791 
  178000   0.19190334 -0.012931017            0   0.27485202 0.00087461504 
  178400   0.19083416 -0.013321828            0   0.27285784 0.00092072691 
  178800   0.19006045 -0.012818293            0   0.27220111 0.0008678903 
  179200   0.19034415 -0.013701141            0   0.27174371 0.00088207071 
  179600   0.19093277  -0.01395194            0   0.27237562 0.00088157975 
  180000   0.19071779 -0.013844066            0   0.27216111 0.00089746228 
  180400   0.18979316 -0.012686235            0   0.27193233 0.00087253902 
  180800   0.19117986 -0.013844869            0   0.27285323 0.00090339393 
  181200   0.19087613 -0.013052377            0   0.27319024 0.00091129681 
  181600   0.19162474 -0.013842381            0   0.27352288 0.0008857516 
  182000   0.19338944 -0.014618059            0   0.27539357 0.00089234145 
  182400   0.19337856 -0.015160772            0   0.27483455 0.00088195511 
  182800   0.19213663 -0.014580189            0   0.27355271 0.00088488109 
  183200   0.19192996 -0.016301819            0   0.27152115 0.00085495407 
  183600   0.18946853 -0.015581735            0   0.26855001 0.00085205624 
  184000   0.18779593 -0.014953907            0   0.26666957 0.00086302298 
  184400   0.18696517 -0.015152936            0    0.2652247 0.00081159416 
  184800   0.18718296  -0.01446031            0   0.26624394 0.00083047382 
  185200   0.18912013 -0.015298695            0   0.26831058 0.00087229397 
  185600   0.19100568 -0.014960248            0   0.27147665 0.0008996049 
  186000   0.19267378 -0.014624567            0   0.27431386 0.00086864492 
  186400   0.19312379 -0.014344428            0   0.27526883 0.00088342901 
  186800   0.19246026 -0.014215263            0   0.27440296 0.00090765444 
  187200   0.19102083 -0.013970776            0   0.27248884 0.00085199269 
  187600   0.19081279 -0.014393786            0   0.27175384 0.00087385002 
  188000   0.18982225 -0.015162875            0   0.26949932 0.00087671872 
  188400   0.18891458 -0.013771045            0   0.26952999 0.00087486341 
  188800   0.18795574 -0.012913798            0   0.26894932 0.00088163523 
  189200   0.18958189 -0.014601469            0   0.26970027 0.00089503178 
  189600   0.18908019 -0.012788429            0   0.27076095 0.00087095628 
  190000   0.18953092 -0.013338349            0   0.27088696 0.00089543604 
  190400    0.1899438 -0.013165455            0   0.27167902 0.0008847359 
  190800   0.19065351 -0.012550231            0   0.27335854 0.00090232662 
  191200   0.19060972 -0.012791037            0   0.27305206 0.0008530344 
  191600   0.19118808  -0.01295191            0   0.27375851 0.00089768016 
  192000    0.1904235 -0.012933356            0   0.27263049 0.00087297242 
  192400    0.1899723 -0.013377605            0    0.2715096 0.00086152842 
  192800   0.18797328  -0.01343399            0   0.26845544 0.00086382959 
  193200    0.1862375 -0.014137778            0   0.26514863 0.00088114117 
  193600    0.1851319 -0.013143958            0   0.26448447 0.00085920207 
  194000   0.18616024 -0.014153349            0   0.26501719 0.00085790184 
  194400   0.18752384 -0.013496847            0   0.26771859 0.00091261664 
  194800   0.18905755 -0.012576667            0   0.27093876 0.00090775458 
  195200   0.19161499 -0.013369457            0   0.27398117 0.0009256648 
  195600   0.19193575 -0.012648028            0   0.27518362 0.00088192721 
  196000   0.19178423 -0.013377575            0   0.27422685 0.00088548193 
  196400   0.19148059 -0.014050899            0   0.27309819 0.00087637508 
  196800   0.19048778 -0.014101703            0   0.27155853 0.00087181614 
  197200   0.18850498 -0.012510555            0   0.27017622 0.00086907694 
  197600   0.18861758 -0.014032184            0   0.26882345 0.00091142812 
  198000   0.18779902 -0.012830217            0   0.26879789 0.00084113033 
  198400   0.18761017 -0.013572801            0   0.26777209 0.00084518979 
  198800    0.1874425 -0.012596243            0   0.26849721 0.00090347909 
  199200   0.18787046 -0.012624398            0   0.26911085 0.00087318477 
  199600   0.18900633 -0.012200745            0   0.27123788 0.00086972364 
  200000   0.19027599 -0.012386137            0   0.27295649 0.00086686364 
  200400   0.19259201 -0.011692104            0   0.27712369 0.00090835167 
  200800    0.1952686 -0.012419272            0    0.2804104 0.00090502044 
  201200   0.19591602 -0.013425736            0   0.28037483 0.00091543611 
  201600   0.19286385 -0.012442916            0   0.27678054 0.0009158974 
  202000   0.18912001 -0.011445153            0   0.27216395 0.0008928298 
  202400   0.18710118 -0.011960673            0   0.26862093 0.0009008852 
  202800   0.18700386 -0.012131533            0   0.26830414 0.00085987948 
  203200   0.18721646 -0.013116282            0    0.2676382 0.00085489427 
  203600   0.18708769 -0.012612949            0   0.26794843  0.000830984 
  204000   0.18712039 -0.012057362            0   0.26855305 0.00087919355 
  204400   0.18852087 -0.013073217            0   0.26963739 0.00086633999 
  204800   0.18846725 -0.012300413            0   0.27032979 0.00084411775 
  205200   0.18953791 -0.012318345            0   0.27191745 0.00088333434 
  205600   0.19124379 -0.014554199            0   0.27223977 0.00084872979 
  206000   0.18946399 -0.012763435            0    0.2713615 0.0008782602 
  206400   0.18704628 -0.012509839            0   0.26798944 0.00087271131 
  206800   0.18562245 -0.013379199            0   0.26498486 0.00085566682 
  207200   0.18440014 -0.014146258            0    0.2623848  0.000850123 
  207600     0.183931 -0.013590613            0   0.26223692 0.00082509325 
  208000   0.18455397 -0.013802583            0   0.26295917 0.00082509032 
  208400   0.18668149 -0.014306053            0   0.26564618 0.0008930128 
  208800   0.18852445  -0.01422519            0   0.26849078 0.00086863199 
  209200   0.18985309 -0.014117396            0   0.27059105 0.00090150924 
  209600   0.18995986 -0.014130676            0   0.27073788 0.0008703126 
  210000   0.18949162 -0.013684736            0   0.27048164 0.0008794193 
  210400    0.1887782 -0.013923272            0   0.26917323 0.00088334412 
  210800   0.18755444 -0.013293329            0   0.26796799 0.00088388732 
  211200   0.18764247  -0.01413912            0   0.26725421 0.00082919162 
  211600   0.18597527 -0.013186699            0   0.26570646 0.00087680932 
  212000   0.18630503 -0.013737577            0   0.26565011 0.00086122062 
  212400    0.1852831 -0.012727365            0   0.26512781 0.00085991006 
  212800   0.18591621 -0.013612823            0   0.26519177 0.00089058832 
  213200   0.18632924 -0.013344752            0   0.26607923 0.00085452134 
  213600   0.18783946 -0.013293091            0   0.26839566 0.0008603445 
  214000   0.19011332  -0.01436859            0    0.2707301 0.00090039688 
  214400   0.19054949 -0.013587374            0    0.2721654 0.00091083163 
  214800   0.19085205 -0.012688035            0   0.27351846 0.00090969137 
  215200   0.18981689 -0.013342654            0    0.2713115 0.00088693008 
  215600   0.18824538 -0.014776156            0   0.26752132 0.00086018782 
  216000   0.18416951 -0.012785989            0   0.26339921 0.00083881292 
  216400   0.18338384 -0.013505926            0   0.26150106 0.00085060209 
  216800   0.18346939 -0.013520537            0   0.26161475 0.00084746996 
  217200    0.1836578  -0.01268796            0   0.26272986 0.00084435564 
  217600   0.18600795 -0.013145721            0   0.26579645 0.00088333849 
  218000   0.18724843 -0.013280843            0   0.26752158 0.00087949847 
  218400   0.18846551 -0.013208611            0   0.26941898 0.00087752059 
  218800    0.1886895 -0.013233113            0   0.26973039 0.00088336881 
  219200   0.18730042 -0.012257958            0   0.26862243 0.00087145616 
  219600   0.18648712 -0.013751135            0   0.26590961 0.00087344626 
  220000    0.1846283 -0.012686383            0   0.26418684  0.000876979 
  220400   0.18392302 -0.012680093            0   0.26313547 0.00088603695 
  220800   0.18418419 -0.013232045            0   0.26297517 0.00086820926 
  221200   0.18440829 -0.013904473            0   0.26263881 0.0008488421 
  221600   0.18352617 -0.012150003            0   0.26307043 0.0008718858 
  222000   0.18412147 -0.011681295            0   0.26443187 0.00084242663 
  222400   0.18510532 -0.012120873            0   0.26546769 0.00086698889 
  222800   0.18644284  -0.01336847            0   0.26622587 0.00084494122 
  223200   0.18669573 -0.012961179            0   0.26701241 0.00086132375 
  223600   0.18702561 -0.013572477            0   0.26689581 0.00088674347 
  224000   0.18594573 -0.012949674            0   0.26589919 0.0008992177 
  224400   0.18406493 -0.012060183            0   0.26396819 0.00083324595 
  224800   0.18206368 -0.011909137            0   0.26111811 0.00085615414 
  225200    0.1822371  -0.01456497            0   0.25872235 0.00084245425 
  225600   0.18053848 -0.013342939            0   0.25739707 0.00084257272 
  226000   0.18152016 -0.013471081            0   0.25874108 0.00087813796 
  226400   0.18335959 -0.012968897            0   0.26200173 0.0008469835 
  226800   0.18589164 -0.012503879            0   0.26626388 0.00084008143 
  227200   0.18895273 -0.014224009            0   0.26913423 0.00089225338 
  227600   0.18860176 -0.014197124            0   0.26863479 0.0008674216 
  228000    0.1875368 -0.014268412            0   0.26696646 0.00086616625 
  228400   0.18646146 -0.014142042            0   0.26548022 0.00085146854 
  228800   0.18574527  -0.01461425            0     0.263934 0.00087707221 
  229200   0.18392292 -0.014997096            0   0.26081832 0.00087178025 
  229600   0.18287311 -0.014514411            0   0.25972667 0.00084759362 
  230000   0.18344552 -0.015328134            0   0.25977136 0.00084802512 
  230400   0.18397821 -0.015057825            0   0.26084049 0.00081254424 
  230800   0.18432436 -0.014590953            0   0.26182646 0.0008388543 
  231200   0.18500696  -0.01493573            0   0.26250534 0.00082869122 
  231600   0.18518689  -0.01417459            0    0.2635363 0.00088664539 
  232000   0.18623015 -0.014633793            0    0.2646416 0.00089344509 
  232400   0.18818311 -0.014819514            0   0.26738459 0.00088303524 
  232800   0.18850893 -0.013938764            0   0.26875393 0.00084319944 
  233200   0.18800022 -0.014482874            0   0.26744695 0.0008535635 
  233600    0.1862466 -0.015165058            0   0.26413499 0.00081062714 
  234000   0.18308498 -0.014370691            0   0.26018812 0.00083017751 
  234400   0.18120246 -0.013705971            0   0.25802976 0.0008351438 
  234800   0.18153308 -0.015377843            0    0.2568537 0.00086261045 
  235200    0.1813273 -0.014389263            0   0.25753369 0.00084443462 
  235600   0.18120562 -0.013909597            0   0.25783089 0.00084638866 
  236000   0.18363939 -0.014001639            0   0.26138858 0.00082447522 
  236400    0.1844331 -0.012822897            0   0.26375758 0.00088612369 
  236800   0.18633385 -0.014443906            0     0.264987 0.00087372589 
  237200   0.18623418 -0.013180338            0    0.2661011 0.00085261884 
  237600   0.18619768  -0.01430708            0   0.26491962 0.00087309324 
  238000   0.18445652 -0.013860895            0   0.26275471 0.0008525978 
  238400   0.18152548 -0.013837935            0   0.25838221 0.0008228033 
  238800   0.17944194 -0.014540684            0   0.25455493 0.00078744481 
  239200   0.17841498 -0.014392617            0   0.25316295 0.00083902501 
  239600   0.17954986 -0.014694188            0   0.25456328 0.00081894521 
  240000   0.18070305   -0.0143857            0   0.25660111 0.00083382131 
  240400   0.18203288  -0.01420346            0   0.25877759 0.00081282153 
  240800   0.18398404 -0.014709725            0   0.26119735 0.00083346833 
  241200   0.18476499 -0.014403026            0   0.26267518 0.0008905213 
  241600   0.18444599 -0.014152263            0   0.26244756 0.00087548715 
  242000   0.18525382 -0.014555307            0   0.26325595 0.00083327986 
  242400   0.18425822 -0.013666152            0   0.26265208 0.00082551334 
  242800    0.1831711 -0.014098366            0   0.26058959 0.00085242028 
  243200   0.18050465 -0.012991259            0   0.25769802 0.0008522847 
  243600   0.17981947  -0.01479407            0   0.25486771 0.00078169985 
  244000   0.17946024 -0.015525203            0   0.25359787 0.0007903736 
  244400   0.17946848 -0.014561355            0   0.25457407 0.0008392234 
  244800   0.17990232 -0.013121187            0   0.25666483 0.00084189456 
  245200   0.18356401  -0.01277644            0   0.26250073 0.00084150103 
  245600   0.18712367 -0.015136753            0   0.26547859 0.0008436256 
  246000   0.18689789 -0.014952257            0   0.26532448 0.00088566702 
  246400   0.18494408 -0.013803415            0   0.26354335 0.00091127192 
  246800    0.1834441 -0.013889356            0     0.261208 0.00086567713 
  247200   0.18162829 -0.013211437            0   0.25916288 0.00085010507 
  247600   0.18119544 -0.014629243            0   0.25709596 0.00086256912 
  248000   0.17962465 -0.013194682            0   0.25617493  0.000851017 
  248400   0.17998902  -0.01388639            0   0.25602964 0.00082340652 
  248800     0.181039 -0.014307251            0   0.25718336 0.00085300511 
  249200   0.18256974 -0.014023547            0    0.2597626 0.00082453774 
  249600   0.18462727 -0.014779664            0   0.26209201 0.00085119032 
  250000   0.18601034 -0.014945039            0   0.26400072 0.00087017591 
  250400   0.18741806 -0.014649578            0   0.26640724 0.0008655302 
  250800   0.18765112  -0.01516154            0   0.26624477 0.00087231479 
  251200   0.18480853 -0.014737146            0   0.26240635 0.00081524741 
  251600    0.1805517 -0.013520236            0   0.25723961 0.00082284235 
  252000   0.17967767 -0.014559148            0   0.25488998 0.00082757439 
  252400   0.17778773 -0.013242916            0   0.25337201 0.00080012797 
  252800   0.17867069 -0.014753336            0    0.2531857 0.00081768059 
  253200   0.18064826 -0.015188777            0   0.25571587 0.00077256756 
  253600   0.18205295  -0.01431249            0   0.25869867 0.00080598557 
  254000   0.18303594 -0.014313739            0   0.26017153 0.00083550884 
  254400   0.18411154 -0.013656588            0   0.26244168 0.00086270456 
  254800   0.18362655 -0.013353622            0   0.26201734 0.00086025985 
  255200    0.1833274 -0.014763862            0   0.26015849 0.00083041612 
  255600     0.180009  -0.01288847            0   0.25705752 0.00080581294 
  256000   0.17884782 -0.013462548            0   0.25474211 0.00088777444 
  256400   0.17759003  -0.01399709            0   0.25232136 0.00082148486 
  256800   0.17651095 -0.013797874            0   0.25090236 0.00081191087 
  257200   0.17753834 -0.012903901            0   0.25333703 0.00083138733 
  257600   0.18151303 -0.012585418            0   0.25961606 0.00081398079 
  258000   0.18481294  -0.01337672            0   0.26377338 0.00084196449 
  258400   0.18472379 -0.012828967            0   0.26418745 0.00085538619 
  258800   0.18417592 -0.013744307            0   0.26245051 0.00085895998 
  259200   0.18237916 -0.012860239            0   0.26064011 0.00082378095 
  259600   0.18085486 -0.013894161            0   0.25732031 0.00080937199 
  260000   0.17822258 -0.012680523            0   0.25458651 0.00080174278 
  260400   0.17790654 -0.013440153            0   0.25335294 0.00085821035 
  260800    0.1778331 -0.013167299            0   0.25351566 0.00082058454 
  261200    0.1796957 -0.014419864            0    0.2550563 0.00083551629 
  261600   0.18080246 -0.014190961            0   0.25694493 0.00084310229 
  262000   0.18152435 -0.012719233            0   0.25949921 0.00084829381 
  262400   0.18334867 -0.014238595            0   0.26071566 0.00086598382 
  262800   0.18384244  -0.01415837            0   0.26153635 0.00087407577 
  263200   0.18328874 -0.014442058            0   0.26042233 0.00084269095 
  263600   0.18030588 -0.014451681            0   0.25593953 0.00080286729 
  264000   0.17814086 -0.015493392            0    0.2516511 0.00078674447 
  264400   0.17614621 -0.014558982            0   0.24959428 0.00078768847 
  264800   0.17655313 -0.014568469            0   0.25019502 0.00079336566 
  265200   0.17797246 -0.014611235            0   0.25228071 0.0008510776 
  265600   0.17969081 -0.014457042            0    0.2550118 0.00080999154 
  266000   0.18101506    -0.014522            0   0.25693271 0.00087921731 
  266400   0.18228052  -0.01464217            0   0.25871025 0.00080443271 
  266800   0.18127031  -0.01375343            0   0.25808406 0.00084669738 
  267200   0.18122434 -0.013930041            0   0.25783851 0.00082469428 
  267600   0.18082599 -0.014812254            0   0.25635892 0.00080209061 
  268000   0.17888549 -0.014945996            0   0.25331516 0.00085651962 
  268400    0.1771895 -0.015817466            0   0.24990034 0.00081111532 
  268800   0.17575351 -0.014569134            0   0.24899522 0.00079683951 
  269200   0.17597578 -0.014511844            0   0.24938583 0.00077751284 
  269600   0.17856888  -0.01553431            0   0.25225205 0.00081824449 
  270000   0.18273203 -0.014337739            0   0.25969178 0.00078871318 
  270400   0.18404336 -0.013829229            0    0.2621668 0.00083360292 
  270800   0.18337041 -0.013132135            0   0.26185472 0.00088035584 
  271200   0.18238766  -0.01403656            0   0.25947654 0.00083786337 
  271600   0.17977273 -0.012932754            0   0.25665892 0.0008790771 
  272000   0.17818261 -0.014110566            0   0.25309653 0.00082272947 
  272400   0.17765392 -0.014933122            0   0.25148113 0.00081749078 
  272800   0.17647068 -0.014034386            0   0.25060545 0.00082344677 
  273200   0.17720665 -0.014839387            0   0.25090414 0.00080476217 
  273600   0.17711102 -0.013821013            0    0.2517791 0.00079729387 
  274000   0.17942362 -0.014824502            0   0.25424364 0.00082250023 
  274400   0.18039285 -0.013894267            0   0.25662737 0.00083656706 
  274800   0.18119635 -0.013235664            0   0.25849091 0.00084572077 
  275200     0.182436 -0.014262687            0   0.25932291  0.000860005 
  275600   0.18150764 -0.013978277            0   0.25821511 0.00083629533 
  276000   0.17884848 -0.013954072            0   0.25425158  0.000825738 
  276400   0.17540054  -0.01362909            0   0.24940595 0.00083178724 
  276800   0.17458641 -0.013541986            0   0.24827215 0.00079697408 
  277200   0.17504495 -0.013778023            0   0.24872376 0.00082729737 
  277600   0.17548311 -0.013199463            0    0.2499594 0.00078456717 
  278000   0.17711616 -0.013451483            0   0.25215634 0.0008456186 
  278400   0.17802347 -0.012926831            0   0.25404161 0.00084136538 
  278800   0.17883801 -0.012535023            0   0.25565493 0.00081229182 
  279200   0.18042311 -0.013141623            0   0.25742538 0.00084471064 
  279600   0.17996882  -0.01250488            0   0.25738086 0.00084582527 
  280000   0.17884302 -0.012591951            0   0.25560551 0.00084359881 
  280400    0.1777418 -0.012379411            0   0.25416663 0.00084381654 
  280800     0.175898  -0.01229976            0   0.25148128 0.0008515316 
  281200   0.17503138 -0.013687136            0    0.2487943 0.00080300109 
  281600   0.17303214 -0.013534917            0   0.24594841 0.00083385222 
  282000   0.17390609 -0.013840963            0   0.24695296 0.00079459177 
  282400   0.17554045 -0.014327423            0   0.24891742 0.00081358049 
  282800   0.17830156 -0.013521553            0   0.25386393 0.00080276877 
  283200   0.18107952 -0.013098314            0   0.25845307 0.00084546475 
  283600   0.18187904 -0.014614587            0   0.25813576 0.00084535002 
  284000    0.1812973 -0.014311888            0   0.25756607 0.00086074945 
  284400   0.17838707 -0.012760178            0   0.25475353 0.00079615702 
  284800   0.17657381 -0.012573156            0   0.25222135 0.00078966466 
  285200   0.17557803 -0.013795208            0     0.249506 0.00080347461 
  285600   0.17438937 -0.012547604            0   0.24897105 0.00081218687 
  286000   0.17522384  -0.01339199            0   0.24937807 0.00080109499 
  286400   0.17546861  -0.01303493            0   0.25010219 0.00081991553 
  286800   0.17777616 -0.014257957            0   0.25233961 0.00081301803 
  287200    0.1779796 -0.012888547            0   0.25401411 0.0008317757 
  287600    0.1796287 -0.012288371            0   0.25708733 0.00085181528 
  288000   0.18052188 -0.012564559            0   0.25815057 0.00082264449 
  288400   0.18007203 -0.013096204            0   0.25694431 0.00087710532 
  288800   0.17703436 -0.012671226            0   0.25281393 0.0008435774 
  289200   0.17471625 -0.014253746            0   0.24775511 0.00078269619 
  289600   0.17327411  -0.01383214            0   0.24601405 0.00081245382 
  290000   0.17262666 -0.012593447            0   0.24628181 0.00078416496 
  290400   0.17388073 -0.012889547            0   0.24786635 0.00080148413 
  290800   0.17614677 -0.013911121            0   0.25024298 0.00079790006 
  291200   0.17689833 -0.012476157            0     0.252805 0.00079512014 
  291600   0.17756145 -0.012130543            0   0.25414504 0.00083343869 
  292000   0.17907831  -0.01356534            0   0.25498497 0.00081628341 
  292400   0.17900517 -0.013803394            0   0.25463723 0.00080780449 
  292800   0.17732394 -0.013020125            0   0.25289929 0.00082436989 
  293200   0.17559154 -0.012888187            0   0.25043328 0.00080988256 
  293600    0.1736766 -0.013122912            0   0.24732687 0.0008002798 
  294000   0.17271694 -0.013146383            0   0.24586425 0.00078481995 
  294400   0.17163929 -0.012008566            0   0.24538601 0.00077544594 
  294800   0.17439651   -0.0130767            0   0.24845267 0.00078230467 
  295200     0.176447 -0.012198227            0   0.25240611 0.00080300933 
  295600   0.18033525 -0.012870283            0   0.25756497 0.00078535431 
  296000   0.18129917 -0.013680687            0   0.25820008 0.00086386375 
  296400   0.17989944 -0.013198604            0   0.25658309 0.00084546826 
  296800    0.1777213 -0.012091989            0   0.25442332 0.00083056619 
  297200    0.1765976 -0.013049686            0   0.25178049 0.00083535718 
  297600   0.17453775 -0.012964839            0   0.24877633 0.00085860426 
  298000   0.17260001  -0.01184693            0   0.24698835 0.00075342614 
  298400   0.17384378 -0.014478488            0   0.24622199 0.00078163883 
  298800   0.17398499 -0.013814821            0   0.24709743 0.00079750774 
  299200   0.17500435 -0.013464222            0   0.24897667 0.00081252458 
  299600   0.17664351  -0.01394676            0   0.25095226 0.00082780007 
  300000   0.17811921 -0.013564585            0   0.25354744 0.00082008815 
  300400   0.17926584  -0.01428694            0   0.25454459 0.00080936747 
  300800   0.17834661  -0.01332249            0   0.25413054 0.00083754071 
  301200   0.17685149  -0.01505567            0   0.25015524 0.00081864412 
  301600   0.17398454 -0.015146687            0   0.24576487 0.00080441863 
  302000   0.17224829  -0.01440256            0   0.24390529 0.00079878322 
  302400   0.17208344 -0.014053228            0    0.2440074 0.00079728211 
  302800   0.17235383 -0.013747993            0   0.24471812 0.00078537546 
  303200    0.1748188 -0.015613681            0   0.24654897 0.00079724216 
  303600   0.17470859 -0.013485116            0   0.24851226 0.00083799066 
  304000   0.17621571 -0.014073381            0    0.2501841 0.00082225571 
  304400   0.17675496 -0.013922035            0   0.25114413 0.00080235641 
  304800   0.17657132 -0.014352738            0   0.25043803 0.00083990206 
  305200   0.17662168 -0.014490265            0   0.25037602 0.00082616632 
  305600   0.17425243 -0.014052976            0   0.24726033 0.00085224523 
  306000    0.1723577 -0.015178325            0    0.2432936 0.00081586834 
  306400   0.16984641 -0.014075545            0   0.24063038 0.00079702162 
  306800   0.16947442 -0.013997103            0   0.24015098 0.00076302967 
  307200   0.17137357 -0.015495773            0   0.24150032 0.00076831811 
  307600   0.17261329 -0.014980843            0   0.24387436 0.00081181018 
  308000   0.17345638 -0.014542259            0   0.24557726 0.00082571999 
  308400   0.17440033 -0.014828483            0   0.24670661 0.00083996369 
  308800   0.17472669 -0.014732679            0   0.24729184 0.00084412367 
  309200   0.17446557 -0.014642191            0   0.24699074 0.00082372264 
  309600   0.17450156 -0.014847061            0   0.24683985 0.00083791837 
  310000   0.17498404 -0.016025988            0   0.24638446 0.00080783022 
  310400   0.17288234 -0.014484201            0   0.24477448 0.00078300161 
  310800   0.17315825 -0.015845429            0   0.24382701 0.00077283193 
  311200   0.17107904 -0.014837061            0   0.24171735 0.00077787486 
  311600   0.17034616 -0.014859571            0   0.24059579 0.00080333158 
  312000   0.17032134 -0.015385679            0   0.24003247 0.00081774175 
  312400   0.17088365 -0.014278105            0   0.24198328 0.00081306729 
  312800   0.17332559 -0.014016864            0   0.24590653 0.00080310371 
  313200   0.17578782 -0.014426249            0   0.24918956 0.00081559828 
  313600   0.17576739 -0.012577769            0    0.2510074 0.00081901518 
  314000   0.17561775 -0.013551661            0   0.24980911 0.00085547621 
  314400   0.17566907 -0.014599613            0   0.24883812 0.00085399894 
  314800   0.17373547 -0.014135747            0   0.24640231 0.00078031344 
  315200   0.17214482  -0.01401136            0   0.24414132  0.000790769 
  315600   0.17151049 -0.014665315            0    0.2425361 0.00077213076 
  316000   0.17174918 -0.014784451            0   0.24277491 0.0007730435 
  316400   0.17124371 -0.013914992            0   0.24288636 0.0008169566 
  316800   0.17228249  -0.01452112            0   0.24383801 0.00075969466 
  317200   0.17307021 -0.014667395            0   0.24487301 0.0007862994 
  317600    0.1728158 -0.013627762            0   0.24553114 0.00080026935 
  318000   0.17344176 -0.014978852            0   0.24511875 0.00078613578 
  318400   0.17324733 -0.014335127            0    0.2454709 0.00083812802 
  318800    0.1735582 -0.014695469            0   0.24557675 0.00081361425 
  319200   0.17280139 -0.014858045            0   0.24427924 0.0008052043 
  319600   0.17201179 -0.013534193            0   0.24441899 0.00080335143 
  320000   0.17189872 -0.013676685            0   0.24410693 0.00081441958 
  320400   0.17227028 -0.014674081            0   0.24366674 0.00075371435 
  320800   0.17260485  -0.01482092            0   0.24402163 0.00080181803 
  321200   0.17127155 -0.013609191            0   0.24323391 0.00079851442 
  321600   0.17204698 -0.014841371            0   0.24316458 0.00081291514 
  322000   0.17247781 -0.015245309            0   0.24340672 0.0007952395 
  322400   0.17300584 -0.014828475            0   0.24461541 0.00078188823 
  322800   0.17348102  -0.01434017            0    0.2458163 0.00077396393 
  323200   0.17459401  -0.01534324            0    0.2464823 0.00081315934 
  323600   0.17354509 -0.013683662            0   0.24656889 0.00078761077 
  324000   0.17295847 -0.014487464            0   0.24488538 0.00079159901 
  324400   0.17187622 -0.015308646            0   0.24244123 0.00080186646 
  324800   0.17017784 -0.014545969            0   0.24065697 0.00077574477 
  325200   0.16937582 -0.014430136            0   0.23957008 0.0007580282 
  325600   0.16929708 -0.015461481            0   0.23842065 0.00074585151 
  326000   0.16943273 -0.015183634            0   0.23890192 0.00080443824 
  326400   0.17078705 -0.015009541            0   0.24110699 0.00077887354 
  326800   0.17390488 -0.015226868            0   0.24556524 0.00080010244 
  327200   0.17601573 -0.015553029            0   0.24840457 0.00081823174 
  327600   0.17583603  -0.01464413            0   0.24904398 0.00083316337 
  328000   0.17487812 -0.014646329            0   0.24760528 0.00082805844 
  328400   0.17294254  -0.01480035            0    0.2445486 0.00078926976 
  328800   0.17170381 -0.015052759            0   0.24243857 0.00076552194 
  329200   0.17180128 -0.016124902            0    0.2415126 0.00075975007 
  329600   0.17092083 -0.015881712            0   0.24043543 0.00073936905 
  330000   0.17059885 -0.016335954            0   0.23949835 0.00079981798 
  330400   0.16982773  -0.01456588            0   0.24011203 0.0007794175 
  330800   0.17000819 -0.013961794            0   0.24098674 0.00078720341 
  331200   0.17018728   -0.0138668            0    0.2413503 0.00080068559 
  331600   0.17175914  -0.01367238            0   0.24390192 0.00076445622 
  332000   0.17366582 -0.013532873            0   0.24690073 0.00080028271 
  332400   0.17649993 -0.014381482            0   0.25030223 0.00076366839 
  332800   0.17691099 -0.014675509            0   0.25062464 0.00080771973 
  333200   0.17386945  -0.01262277            0    0.2481162 0.00076044569 
  333600   0.17156224  -0.01363246            0   0.24364657 0.00080714499 
  334000    0.1689305 -0.013052228            0   0.24028017 0.00075553996 
  334400    0.1689647 -0.013900314            0   0.23948338 0.00079008106 
  334800   0.16854495 -0.012759615            0   0.23999461 0.00080443127 
  335200   0.17055387 -0.014218205            0   0.24154864 0.00078321958 
  335600   0.17053099 -0.012738621            0   0.24299391 0.00078474808 
  336000   0.17247798  -0.01422632            0   0.24442598 0.00080363505 
  336400   0.17268431 -0.013991819            0   0.24496989 0.0007818343 
  336800   0.17328824 -0.014693936            0   0.24517344 0.0007517733 
  337200   0.17208482  -0.01423928            0   0.24382341 0.00078664312 
  337600   0.17072841 -0.014190444            0   0.24183815 0.0008027656 
  338000   0.16833469 -0.013910001            0    0.2385289 0.00079207961 
  338400   0.16745981 -0.014721573            0   0.23640535 0.00074188087 
  338800    0.1664613 -0.013912581            0   0.23571694 0.00077107922 
  339200   0.16743814  -0.01488463            0   0.23620979 0.00078454607 
  339600   0.16872473 -0.014025051            0   0.23899877 0.00079887477 
  340000   0.17086711 -0.013836247            0   0.24240034 0.00080072179 
  340400   0.17224629 -0.013609895            0   0.24469495 0.00083134938 
  340800    0.1731977 -0.014798629            0   0.24493298 0.00078684009 
  341200   0.17268273 -0.013919942            0    0.2450394 0.00078333842 
  341600   0.17229429  -0.01489195            0   0.24348488 0.00080167295 
  342000   0.16961808 -0.012510859            0   0.24185265 0.0007415787 
  342400   0.16928819  -0.01454006            0   0.23932875  0.000776504 
  342800   0.16851034 -0.014551264            0   0.23815105  0.000730568 
  343200   0.16791778 -0.014412886            0   0.23740082 0.00076216118 
  343600   0.16791841 -0.014002371            0   0.23781227 0.00076248735 
  344000   0.16862642 -0.013726501            0    0.2391499 0.00075078448 
  344400   0.17009191 -0.013981957            0   0.24109212 0.00079799294 
  344800   0.17225689 -0.014557721            0   0.24376303 0.00080763132 
  345200   0.17364539 -0.014259763            0   0.24614321 0.00076653286 
  345600   0.17407988  -0.01430742            0   0.24674711 0.00078609949 
  346000   0.17200906  -0.01379373            0   0.24415536 0.00076976726 
  346400   0.16871004  -0.01345025            0   0.23955154 0.00078336323 
  346800   0.16774043 -0.015258233            0   0.23628951 0.00080318776 
  347200   0.16655194 -0.014737121            0   0.23502833 0.00077199605 
  347600   0.16688898 -0.015096124            0   0.23517477 0.0007930603 
  348000    0.1685398 -0.015254325            0   0.23749218 0.00077546959 
  348400   0.16873917 -0.013798505            0   0.23924697 0.00076922082 
  348800   0.17121709 -0.016156522            0   0.24060491 0.00078052978 
  349200    0.1712223  -0.01524985            0    0.2415194 0.00076348866 
  349600   0.17142161 -0.015771484            0   0.24129665 0.00075730894 
  350000   0.16939243 -0.014400638            0   0.23962449 0.00077693401 
  350400   0.16823785  -0.01594264            0   0.23635105 0.00078418167 
  350800   0.16531522 -0.014817556            0   0.23309328 0.00077583604 
  351200   0.16492087  -0.01627346            0     0.231046 0.00074063308 
  351600     0.164822  -0.01588611            0   0.23128508 0.00071704417 
  352000   0.16547858 -0.015273222            0    0.2328826 0.00077166175 
  352400   0.16714599 -0.015509648            0   0.23514666 0.00075071416 
  352800    0.1682153 -0.014868307            0   0.23739156 0.0007727188 
  353200   0.16806877 -0.014646599            0   0.23739353 0.00073133479 
  353600   0.16889394 -0.015037891            0   0.23823969 0.00081711128 
  354000   0.16839137 -0.014324336            0   0.23819957   0.00078712 
  354400   0.16899065 -0.015277707            0    0.2381449 0.0007758469 
  354800   0.16800173 -0.014869654            0   0.23706994  0.000786604 
  355200   0.16878078 -0.016563236            0   0.23654464 0.00077338409 
  355600   0.16793305 -0.015533706            0    0.2363029 0.00074545354 
  356000   0.16690793 -0.015453796            0   0.23484552 0.00078289302 
  356400   0.16534515 -0.014846508            0   0.23310922 0.00076211629 
  356800   0.16425795 -0.014765824            0    0.2315595 0.00074047862 
  357200   0.16419756  -0.01490821            0   0.23132656 0.00073860584 
  357600   0.16541345 -0.015012179            0   0.23304597 0.00074028238 
  358000   0.16788787 -0.014486755            0   0.23728209 0.00076451486 
  358400   0.16980901 -0.014364116            0   0.24028573 0.00078437359 
  358800   0.17114724 -0.015507249            0   0.24114943 0.00077910191 
  359200   0.17040601 -0.014878427            0   0.24066669 0.00079419702 
  359600   0.17010128 -0.015567382            0   0.23952075 0.00078000484 
  360000   0.16822986 -0.015590936            0   0.23669077 0.00077933106 
  360400   0.16620874 -0.015022337            0   0.23422845 0.00075449275 
  360800   0.16624579 -0.015542617            0   0.23376372 0.00077186454 
  361200   0.16618474 -0.015258759            0   0.23395603 0.00079290439 
  361600   0.16581907 -0.014196119            0   0.23447031 0.00076392241 
  362000   0.16722287 -0.015849654            0   0.23492194 0.00077904078 
  362400   0.16696945 -0.014418197            0   0.23597337 0.00075198401 
  362800   0.16703131 -0.013950047            0   0.23653427 0.00074851316 
  363200   0.16729029 -0.013832682            0   0.23704002 0.00073747365 
  363600   0.16861893 -0.014927531            0   0.23793763 0.00073692114 
  364000   0.16759492 -0.014309361            0   0.23702018 0.00079150606 
  364400   0.16825265 -0.015421104            0   0.23689478 0.0007653313 
  364800   0.16685034 -0.014106842            0    0.2361061 0.00078356454 
  365200   0.16568224 -0.013673736            0   0.23478749 0.00076662885 
  365600   0.16432689 -0.013277998            0   0.23315072 0.00073928499 
  366000   0.16444316 -0.013226078            0     0.233377 0.00076760627 
  366400   0.16554075 -0.014337334            0   0.23391172 0.00078191651 
  366800   0.16730424 -0.015610446            0   0.23528317 0.00080161442 
  367200    0.1676788 -0.015325027            0    0.2361303 0.00079850363 
  367600   0.16757057 -0.014587082            0   0.23670593 0.00079268551 
  368000   0.16834912 -0.014154947            0    0.2383056 0.00078412982 
  368400    0.1677846  -0.01355729            0    0.2380567 0.00071635815 
  368800    0.1678581  -0.01418863            0   0.23753558 0.00078307897 
  369200   0.16656785 -0.015299627            0   0.23448969 0.00074327852 
  369600   0.16385377 -0.013902411            0    0.2318168 0.00075818344 
  370000   0.16250482  -0.01436906            0   0.22932723 0.00073674432 
  370400   0.16183533 -0.014388003            0   0.22830431 0.00075678223 
  370800   0.16364257 -0.014143016            0   0.23125947 0.00078156284 
  371200   0.16667578 -0.015268403            0   0.23468276 0.00074301791 
  371600   0.16738376 -0.013640315            0   0.23737256 0.00077945503 
  372000   0.16900584  -0.01522292            0   0.23822246 0.00077837066 
  372400   0.16807917 -0.014241743            0   0.23781398 0.0007470553 
  372800   0.16682642 -0.013946178            0    0.2362309 0.00076564958 
  373200   0.16612981 -0.014339171            0   0.23479324 0.00076331178 
  373600   0.16533725 -0.014712815            0   0.23323106 0.00074474047 
  374000   0.16393895 -0.014300046            0    0.2315469 0.00075427803 
  374400   0.16411869 -0.015021642            0   0.23109485 0.00077131845 
  374800   0.16402356  -0.01448797            0   0.23148587 0.00079391965 
  375200    0.1654772 -0.015860151            0    0.2322936 0.00073858611 
  375600   0.16614401 -0.015044845            0   0.23410886 0.00078946691 
  376000   0.16841302 -0.015662996            0   0.23689338 0.00074223871 
  376400   0.16960139 -0.013820657            0   0.24051782 0.00080125843 
  376800   0.17128699 -0.015375594            0   0.24149066 0.00077372679 
  377200   0.16955951 -0.015374177            0    0.2389015 0.0007756903 
  377600   0.16666441 -0.015041016            0    0.2348931 0.00072743984 
  378000   0.16384701 -0.014462457            0   0.23124661 0.00068842429 
  378400   0.16480944 -0.016274861            0   0.23087749 0.00074660298 
  378800   0.16467787 -0.017097817            0   0.22985723 0.0007310569 
  379200   0.16440865 -0.016602923            0   0.22994839 0.00076195769 
  379600   0.16483849 -0.016891034            0   0.23030488 0.00072997095 
  380000   0.16488974 -0.016655793            0   0.23061698 0.00073265628 
  380400   0.16627575 -0.017549891            0   0.23180138 0.00078644396 
  380800   0.16531874 -0.015804735            0   0.23211138 0.00076828671 
  381200   0.16563643  -0.01638093            0    0.2320116 0.0007523719 
  381600   0.16553734  -0.01639251            0   0.23185142 0.00075394207 
  382000   0.16577684 -0.017307018            0   0.23129607 0.00074463846 
  382400   0.16376528 -0.016646806            0    0.2289397 0.00072121433 
  382800   0.16191129 -0.016020435            0   0.22678579 0.00074420232 
  383200   0.16250346 -0.017812232            0   0.22588202 0.00072088107 
  383600   0.16273582  -0.01824675            0   0.22579595 0.00073814633 
  384000   0.16274562 -0.017296772            0   0.22676063 0.00072022266 
  384400   0.16421935 -0.017797766            0   0.22846968 0.00074401782 
  384800   0.16617164 -0.017494682            0   0.23170047 0.00075999519 
  385200   0.16835261 -0.018275747            0   0.23419003 0.0007456441 
  385600   0.16769294 -0.016923798            0   0.23455272 0.00073938334 
  386000   0.16660558 -0.016662567            0   0.23318332 0.00075992539 
  386400   0.16534077 -0.017063316            0   0.23088583 0.00070456005 
  386800   0.16380231 -0.017490391            0   0.22815166 0.00074456977 
  387200   0.16347624 -0.018291813            0   0.22686125 0.00071188365 
  387600   0.16293883 -0.017022793            0   0.22732435 0.00070143393 
  388000   0.16286396 -0.016808288            0   0.22742657 0.00071308312 
  388400   0.16333539 -0.017733648            0   0.22720819 0.00075325636 
  388800   0.16380832 -0.017424184            0   0.22822687 0.00073358492 
  389200   0.16396033 -0.016550224            0   0.22932878 0.00076320857 
  389600   0.16461723 -0.016572285            0   0.23029182 0.00075849796 
  390000   0.16465166 -0.016462537            0   0.23045321 0.00070459095 
  390400   0.16450375 -0.016520613            0   0.23017332 0.00070587009 
  390800   0.16364272 -0.017145546            0   0.22825716 0.00075749053 
  391200   0.16130875 -0.015929991            0   0.22597265 0.00073179316 
  391600   0.16064764 -0.016324457            0   0.22458676 0.00073834726 
  392000   0.16068839 -0.017565328            0     0.223407 0.00071488026 
  392400   0.16108643 -0.017309713            0   0.22425952 0.00076165996 
  392800   0.16218635 -0.016788059            0   0.22643064 0.00074797801 
  393200   0.16387017 -0.016666385            0   0.22907742 0.00072119782 
  393600   0.16531019  -0.01614992            0   0.23175337 0.00073651158 
  394000   0.16597604  -0.01603842            0    0.2328634 0.00074513728 
  394400   0.16487845 -0.015030753            0   0.23222509 0.00077121118 
  394800   0.16509155  -0.01643509            0   0.23114032 0.00070794047 
  395200   0.16307738 -0.015110177            0   0.22944474 0.00075767804 
  395600    0.1625896  -0.01538792            0   0.22843551 0.00075859064 
  396000   0.16201511 -0.015265504            0   0.22769641 0.0007089431 
  396400   0.16284589 -0.016727005            0   0.22748077 0.0007105605 
  396800    0.1624924 -0.016364815            0   0.22731285 0.00077273743 
  397200   0.16249335 -0.015955427            0   0.22772366 0.00075051007 
  397600   0.16291075 -0.016696513            0   0.22760852 0.00073279473 
  398000   0.16240445 -0.015466967            0    0.2280788 0.00071134379 
  398400   0.16303862 -0.016363937            0   0.22813285 0.00073045921 
  398800    0.1619593 -0.015232557            0   0.22764566 0.00074468136 
[...]
 1011600  0.087112128  -0.34160869            0  -0.21097317 6.5056446e-05 
 1012000  0.085061665  -0.33992767            0  -0.21236707 -6.2340611e-05 
 1012400  0.085605509  -0.34211783            0  -0.21374166 -2.8682395e-05 
 1012800  0.085779479  -0.34474386            0   -0.2161068 0.00011906061 
 1013200  0.086622955  -0.34758972            0  -0.21768777 4.7655097e-05 
 1013600  0.084062924  -0.34561382            0  -0.21955096 2.9247588e-05 
 1014000  0.085026091  -0.34975486            0  -0.22224761 6.5857368e-05 
 1014400  0.085526927   -0.3516468            0  -0.22338848 0.00012750658 
 1014800  0.085975133  -0.35296419            0  -0.22403373 6.4686672e-05 
 1015200  0.084910213  -0.35364764            0  -0.22631416 0.00031876627 
 1015600  0.084210337  -0.35590272            0   -0.2296188 3.0942619e-06 
 1016000  0.085245511  -0.36036554            0  -0.23252924 3.9701621e-05 
 1016400   0.08516815  -0.36114758            0  -0.23342729 -1.9163011e-05 
 1016800  0.083860491  -0.36109495            0  -0.23533567 5.7943158e-05 
 1017200  0.083828307  -0.36243497            0  -0.23672394 4.105626e-05 
 1017600  0.084113392  -0.36433123            0  -0.23819268 1.2137927e-05 
 1018000  0.083969138  -0.36719178            0  -0.24126956 9.6447422e-05 
 1018400  0.085458556  -0.37102549            0   -0.2428697 7.0851227e-05 
 1018800  0.083871117  -0.37270831            0  -0.24693308 -7.7672415e-05 
 1019200  0.082929144  -0.37223479            0  -0.24787217 3.1698381e-05 
 1019600  0.081729383  -0.37215668            0  -0.24959325 -1.449285e-05 
 1020000  0.083086558  -0.37463438            0   -0.2500357 8.2942772e-05 
 1020400   0.08528536  -0.37956137            0  -0.25166531 -3.8156813e-05 
 1020800  0.084589034  -0.37898079            0  -0.25212896 0.00012288853 
 1021200  0.082653528  -0.37937499            0  -0.25542569 5.5950944e-05 
 1021600  0.082643897  -0.38052617            0  -0.25659132 -2.1206475e-05 
 1022000  0.083022708  -0.38099023            0   -0.2564873 -1.1176571e-05 
 1022400  0.082545994  -0.38339423            0  -0.25960619 2.7352409e-05 
 1022800  0.083026524  -0.38487017            0  -0.26036152 3.6376874e-05 
 1023200  0.082909642  -0.38680096            0  -0.26246758 1.0396421e-05 
 1023600  0.083220181  -0.38916205            0  -0.26436299 0.00017829082 
 1024000  0.083844298   -0.3923112            0   -0.2665762 -6.252456e-05 
 1024400   0.08338168  -0.39254528            0  -0.26750402 0.00011823535 
 1024800  0.082786358  -0.39404942            0  -0.26990093 3.7407873e-05 
 1025200  0.083609686  -0.39628837            0  -0.27090519 0.00022098187 
 1025600  0.082276177  -0.39696608            0  -0.27358267 -1.100764e-05 
 1026000   0.08173657  -0.39780795            0  -0.27523374 -7.789196e-05 
 1026400  0.079019268  -0.39630857            0   -0.2778093 1.2238846e-05 
 1026800  0.081526295  -0.40181645            0  -0.27955757 0.00019741565 
 1027200  0.080845008  -0.40215766            0  -0.28092047 1.1686823e-05 
 1027600  0.082314496  -0.40565494            0  -0.28221406 -8.5943338e-05 
 1028000  0.080176637  -0.40256624            0  -0.28233135 -2.0773255e-05 
 1028400  0.080386524  -0.40273729            0  -0.28218765 -9.1597266e-05 
 1028800  0.081863475  -0.40540814            0  -0.28264363 -3.1237684e-05 
 1029200  0.083464778  -0.40956627            0   -0.2844004 0.00012956988 
 1029600  0.082784276  -0.40975349            0  -0.28560812 0.00011902274 
 1030000  0.081257606  -0.40968561            0  -0.28782968 5.3597464e-05 
 1030400   0.08260754  -0.41066297            0  -0.28678264 0.00021206122 
 1030800  0.082672229  -0.41374554            0   -0.2897682 6.7771413e-05 
 1031200  0.082628162  -0.41348805            0  -0.28957679 3.5503649e-05 
 1031600  0.083076189   -0.4162911            0  -0.29170797 6.3417686e-05 
 1032000  0.081825387  -0.41428952            0  -0.29158213 0.00032276611 
 1032400  0.081809512  -0.41540936            0  -0.29272577 0.00011346059 
 1032800  0.081413824  -0.41716818            0  -0.29507797 -5.6645699e-05 
 1033200  0.081025012  -0.41701746            0  -0.29551033 0.00025592607 
 1033600  0.080617613  -0.41828614            0  -0.29738995 0.00011254795 
 1034000  0.083412291  -0.42171571            0  -0.29662856 5.8543488e-05 
 1034400  0.080792439  -0.41973656            0   -0.2985782 -0.00010623132 
 1034800  0.082752843  -0.42488524            0  -0.30078701 -7.8215053e-05 
 1035200  0.081724306  -0.42468254            0  -0.30212672 0.00030855799 
 1035600  0.082278958  -0.42693004            0  -0.30354246 7.8109278e-05 
 1036000  0.081441914  -0.42705068            0  -0.30491835 -0.00016695201 
 1036400  0.082233252  -0.42832477            0  -0.30500573 7.9331709e-05 
 1036800  0.083726391   -0.4323603            0  -0.30680211 -0.00015722828 
 1037200  0.083331465  -0.43385658            0  -0.30889063 1.1771662e-06 
 1037600  0.080152512  -0.43126902            0  -0.31107031 6.4673093e-05 
 1038000  0.080405527   -0.4331262            0  -0.31254806 -0.00011569398 
 1038400  0.080251511  -0.43484275            0  -0.31449558 4.2232926e-05 
 1038800  0.081208171  -0.43889256            0  -0.31711076 -8.4544942e-05 
 1039200  0.081896275  -0.43968921            0   -0.3168755 0.00017318968 
 1039600  0.081705179  -0.44235641            0  -0.31982928 0.00011252523 
 1040000  0.081122964  -0.44264392            0  -0.32098989 7.5129773e-05 
 1040400  0.080421321  -0.44396802            0   -0.3233662 -7.9984803e-05 
 1040800  0.081657321  -0.44667383            0  -0.32421847 7.2481444e-05 
 1041200  0.079027833  -0.44403493            0  -0.32552281 -0.00012955707 
 1041600  0.081729133  -0.44839415            0   -0.3258311 0.00011190674 
 1042000  0.081115941  -0.44965014            0  -0.32800664 4.900755e-05 
 1042400  0.080652983  -0.44993219            0  -0.32898297 9.072267e-05 
 1042800  0.081285166  -0.45329992            0  -0.33140265 1.5676844e-05 
 1043200  0.080781089  -0.45532919            0  -0.33418785 -6.4931061e-05 
 1043600  0.080507767  -0.45607302            0  -0.33534156 -8.4194089e-07 
 1044000  0.080685286  -0.45881763            0  -0.33781996 -0.00010711787 
 1044400  0.080407743  -0.45904936            0   -0.3384679 -5.1317254e-05 
 1044800  0.081609769  -0.46205516            0  -0.33967111 3.6074635e-05 
 1045200  0.081724701  -0.46462414            0  -0.34206774 2.0004321e-05 
 1045600   0.08043978  -0.46491261            0   -0.3442831 -3.2549228e-05 
 1046000  0.081267979  -0.46727116            0  -0.34539967 8.8950448e-05 
 1046400  0.081292207  -0.46982639            0  -0.34791857 -0.0001005495 
 1046800  0.081518497  -0.47130761            0  -0.34906044 -4.4219676e-05 
 1047200  0.080142462  -0.47141951            0  -0.35123587 6.8669804e-05 
 1047600  0.080500111  -0.47478897            0  -0.35406899 -4.5927465e-05 
 1048000  0.080460187  -0.47752396            0  -0.35686385 -0.00015941431 
 1048400  0.078844339  -0.47668445            0  -0.35844751 3.9796166e-05 
 1048800  0.079206749  -0.47806413            0  -0.35928371 -0.00014488615 
 1049200  0.079137663  -0.47891154            0  -0.36023472 -9.3316201e-05 
 1049600  0.080330244  -0.48146498            0  -0.36099974  7.44229e-05 
 1050000  0.079172145  -0.48139189            0  -0.36266336 -3.0907096e-05 
 1050400  0.079038674  -0.48286638            0    -0.364338 -0.00024017149 
 1050800  0.079613756   -0.4840092            0  -0.36461842 7.0052954e-05 
 1051200  0.079689898  -0.48748886            0   -0.3679839 1.9573216e-05 
 1051600  0.080333644  -0.48972681            0  -0.36925647 -4.9817083e-05 
 1052000   0.07815519  -0.48788618            0   -0.3706827 -0.00028306267 
 1052400  0.079734955  -0.49112364            0  -0.37155111 6.0426601e-05 
 1052800  0.078278854  -0.49003954            0  -0.37265062 0.00020682096 
 1053200  0.079168219  -0.49330074            0   -0.3745781 0.00017490341 
 1053600  0.080117539  -0.49557714            0  -0.37543087 8.9048934e-05 
 1054000  0.081051106  -0.49828323            0  -0.37673696 1.1690223e-05 
 1054400  0.079674161  -0.49750995            0  -0.37802859 0.00014748246 
 1054800  0.078717518   -0.4989864            0  -0.38093965 -2.8401483e-05 
 1055200  0.078416742   -0.4985642            0   -0.3809685 0.00011127609 
 1055600  0.078239606   -0.5000016            0  -0.38267153 0.00026531192 
 1056000  0.077724355  -0.50099531            0  -0.38443792 0.00016018307 
 1056400  0.079433063  -0.50535603            0  -0.38623622 -1.1369005e-05 
 1056800  0.079489701  -0.50826163            0  -0.38905688 -1.575952e-05 
 1057200  0.079104721  -0.50998965            0  -0.39136223 -0.00014344922 
 1057600  0.077093596  -0.50815229            0  -0.39254081 -0.00015763048 
 1058000  0.078041114  -0.51137037            0  -0.39433797 -0.00022415217 
 1058400  0.079308683  -0.51498051            0  -0.39604722 -6.9479666e-05 
 1058800  0.078883844   -0.5152371            0  -0.39694092 0.00016313567 
 1059200  0.077716148  -0.51557804            0  -0.39903296 -2.5943762e-05 
 1059600  0.076499174  -0.51548336            0  -0.40076329 1.0973842e-05 
 1060000  0.077897818  -0.52005715            0  -0.40323963 -0.00016312552 
 1060400  0.076481188   -0.5188771            0    -0.404184 -0.00017748605 
 1060800  0.078923189  -0.52353107            0  -0.40517588 -4.6779573e-05 
 1061200  0.078295511  -0.52388935            0  -0.40647544 0.0001605915 
 1061600  0.076828299  -0.52344385            0  -0.40823021 0.00013279768 
 1062000  0.077391621  -0.52634456            0  -0.41028615 1.259455e-05 
 1062400  0.077218647  -0.52680001            0  -0.41100099 -4.7276838e-05 
 1062800   0.07602051  -0.52684531            0  -0.41284306 -1.3541111e-05 
 1063200   0.07618239    -0.528085            0  -0.41383998 -8.3436535e-05 
 1063600   0.07577638  -0.52759208            0  -0.41395592 -4.257983e-05 
 1064000  0.075388191  -0.52807902            0  -0.41502501 7.5997786e-05 
 1064400  0.075506434  -0.52927099            0  -0.41603965 -2.6708037e-05 
 1064800   0.07680737  -0.53132316            0  -0.41614091 2.0049232e-05 
 1065200  0.075944445  -0.53018923            0  -0.41630104 -1.0208588e-05 
 1065600  0.076352298  -0.53291417            0  -0.41841436 -0.00010955752 
 1066000  0.076540808  -0.53440711            0   -0.4196246 -0.00011066538 
 1066400  0.076305605  -0.53434951            0  -0.41991971 0.00012629415 
 1066800  0.077342121  -0.53669603            0  -0.42071185 -0.00012907873 
 1067200   0.07600761    -0.534868            0  -0.42088509 -5.6105631e-05 
 1067600  0.075918477  -0.53601257            0  -0.42216332 1.1741125e-05 
 1068000  0.077288142  -0.53865591            0  -0.42275268 9.512135e-05 
 1068400  0.077078101  -0.53906646            0  -0.42347821 5.5564382e-05 
 1068800  0.075734963  -0.53964228            0  -0.42606823 8.8868507e-05 
 1069200  0.076677529  -0.54157296            0  -0.42658542 -9.7409006e-05 
 1069600  0.078335902  -0.54565466            0  -0.42818018 2.088827e-05 
 1070000  0.077057052  -0.54471594            0  -0.42915926 -0.00017641268 
 1070400  0.078286355  -0.54866825            0  -0.43126808 9.3566613e-07 
 1070800  0.077008822  -0.54765653            0  -0.43217218 -2.642588e-05 
 1071200  0.076668586  -0.54870225            0  -0.43372812 -0.00023983736 
 1071600  0.077700646  -0.55017232            0  -0.43365049 1.5649461e-05 
 1072000  0.076375466   -0.5504729            0  -0.43593835 9.3662415e-05 
 1072400  0.075896689  -0.55113183            0  -0.43731525 -8.8632502e-05 
 1072800  0.076329191  -0.55208537            0  -0.43762021 -6.0473829e-05 
 1073200  0.076000674  -0.55199512            0  -0.43802261 4.5181699e-05 
 1073600  0.076963829  -0.55357341            0  -0.43815653 -1.1663377e-05 
 1074000  0.075411579  -0.55297815            0  -0.43988906 9.1368756e-05 
 1074400  0.076057125  -0.55500161            0  -0.44094444 0.00027497555 
 1074800  0.074977367   -0.5551108            0  -0.44267287 -0.00016884895 
 1075200  0.074561502  -0.55407197            0  -0.44225768 -9.7576022e-05 
 1075600  0.077466217  -0.55937546            0  -0.44320519 -6.1110366e-05 
 1076000  0.076060449   -0.5595946            0  -0.44553245 -0.00012445765 
 1076400  0.076245757  -0.56025315            0  -0.44591311 5.8893501e-05 
 1076800  0.076127667  -0.56136516            0  -0.44720221 -0.00013791695 
 1077200  0.075527656  -0.56012074            0  -0.44685758 -5.2285142e-05 
 1077600  0.076147798  -0.56229012            0  -0.44809698 -0.00019728606 
 1078000  0.076472813  -0.56401254            0    -0.449332 -3.7736296e-05 
 1078400  0.075518713  -0.56388403            0  -0.45063428 -1.1611304e-05 
 1078800  0.075756021  -0.56538554            0  -0.45177992 0.00019765361 
 1079200  0.075154161  -0.56405479            0  -0.45135173 0.00016552102 
 1079600  0.076121195  -0.56766478            0  -0.45351154 4.5099438e-05 
 1080000  0.077312287  -0.57032449            0  -0.45438505 -0.00011645952 
 1080400  0.074474124  -0.56642893            0  -0.45474567 0.00017999001 
 1080800   0.07679651  -0.57101833            0  -0.45585237 -0.00015183331 
 1081200  0.077650655  -0.57402645            0  -0.45757959 -3.0328148e-05 
 1081600  0.075807114  -0.57216451            0  -0.45848227 1.6653917e-06 
 1082000  0.078187437  -0.57733061            0  -0.46007878 -0.00024270623 
 1082400  0.075842445  -0.57528997            0  -0.46155474 -9.7124311e-06 
 1082800  0.076671682  -0.57766694            0  -0.46268817 4.9555416e-05 
 1083200  0.075548869   -0.5768036            0  -0.46350863 9.6457253e-05 
 1083600  0.076653734  -0.58023051            0  -0.46527866 6.263597e-05 
 1084000  0.075359646  -0.57971838            0  -0.46670717 -9.9827939e-05 
 1084400  0.074131981  -0.57964093            0  -0.46847076 -6.1715566e-05 
 1084800  0.073663938   -0.5805803            0  -0.47011202 6.9806128e-05 
 1085200  0.075592636  -0.58476211            0  -0.47140151 6.3877607e-05 
 1085600   0.07524532  -0.58546952            0  -0.47262976 3.9937273e-05 
 1086000  0.074246081  -0.58462105            0  -0.47327977 5.5650471e-05 
 1086400  0.075158746  -0.58634891            0  -0.47363898 0.00015038468 
 1086800  0.074625446  -0.58891627            0  -0.47700609 -0.00014490866 
 1087200  0.073543067  -0.58831828            0  -0.47803126 -0.00017942401 
 1087600  0.074144738  -0.59066734            0  -0.47947804 0.00010478911 
 1088000  0.074200725  -0.59157556            0  -0.48030229 -5.425715e-05 
 1088400  0.073065216  -0.59016428            0  -0.48059386 0.00014113037 
 1088800  0.073134405  -0.59148879            0  -0.48181461 0.00026104535 
 1089200  0.073402604  -0.59289772            0  -0.48282134 0.00019849117 
 1089600   0.07538055  -0.59511982            0  -0.48207726 0.00016926979 
 1090000  0.074503333  -0.59584417            0  -0.48411711 8.3177033e-05 
 1090400  0.074271313  -0.59593126            0  -0.48455214 -0.0002079016 
 1090800  0.074287958  -0.59725225            0  -0.48584818 -4.3356592e-05 
 1091200  0.072682032  -0.59646306            0  -0.48746726 2.5078812e-05 
 1091600  0.073636564  -0.59895355            0  -0.48852631 -0.00025139855 
 1092000  0.074100493  -0.60013979            0  -0.48901684 4.0005587e-05 
 1092400  0.072531844  -0.59926757            0  -0.49049701 5.6030868e-05 
 1092800  0.073308962  -0.60101136            0  -0.49107541 0.00015844304 
 1093200  0.072361403  -0.60020316            0  -0.49168819 -4.2593696e-05 
 1093600  0.073155249  -0.60238939            0  -0.49268395 -1.5011575e-05 
 1094000  0.074192659  -0.60484041            0  -0.49357925 -7.4633658e-05 
 1094400  0.072876893  -0.60423741            0   -0.4949494 -3.1440172e-05 
 1094800  0.072494824  -0.60353451            0  -0.49481946 9.0473169e-05 
 1095200  0.072930542  -0.60471531            0  -0.49534684 0.00013159886 
 1095600  0.072577183  -0.60662488            0  -0.49778632 8.6846692e-05 
 1096000  0.073750896  -0.60932894            0  -0.49873025 0.00022742896 
 1096400  0.071898054  -0.60645192            0   -0.4986318 -5.9371214e-05 
 1096800  0.073616862   -0.6101131            0  -0.49971541 -2.6341189e-06 
 1097200  0.073953876  -0.61161405            0  -0.50071097 -8.5757101e-05 
 1097600  0.072926443  -0.61041085            0  -0.50104854 3.6257019e-05 
 1098000  0.073079057  -0.61135027            0  -0.50175909 -8.4484241e-05 
 1098400   0.07253704  -0.61138925            0  -0.50261089 -3.0801993e-06 
 1098800  0.072937254  -0.61218928            0  -0.50281075 -1.6898546e-05 
 1099200  0.072324675  -0.61233535            0  -0.50387546 -1.1714931e-06 
 1099600  0.072933111  -0.61374788            0  -0.50437556 8.2249687e-05 
 1100000  0.074438966  -0.61688086            0  -0.50525032 6.1273848e-05 
 1100400  0.074651468  -0.61836995            0  -0.50642074 0.00016582538 
 1100800  0.072601045  -0.61789676            0  -0.50902242 -0.00021565074 
 1101200  0.072101969  -0.61782673            0  -0.50970081 -7.4265644e-05 
 1101600  0.072286135  -0.61996438            0  -0.51156229 -0.00025578861 
 1102000   0.07141065  -0.61853196            0  -0.51144276 0.00011219582 
 1102400  0.072103623  -0.62125717            0  -0.51312878 1.5513787e-05 
 1102800  0.072882445  -0.62345774            0   -0.5141614 -0.00012940577 
 1103200  0.071933746  -0.62298017            0  -0.51510653 -0.0001017182 
 1103600  0.071871153  -0.62416408            0   -0.5163843 -0.00010638349 
 1104000  0.071615671  -0.62407524            0  -0.51667859 0.0001171581 
 1104400  0.071339833   -0.6245888            0   -0.5176058 1.0553008e-05 
 1104800  0.070089074  -0.62406774            0  -0.51896041 -0.00011729845 
 1105200   0.07007557  -0.62463934            0  -0.51955227 -4.962914e-05 
 1105600  0.071224652  -0.62730767            0   -0.5204974 0.00021647789 
 1106000  0.071644451  -0.62747209            0  -0.52003228 0.00027075964 
 1106400  0.070844169  -0.62758351            0  -0.52134382 -0.00012658205 
 1106800  0.071057147  -0.62864492            0  -0.52208584 -0.00014824445 
 1107200  0.070870252  -0.62967567            0  -0.52339687 8.7639323e-05 
 1107600  0.070817899  -0.63013362            0  -0.52393333 2.0468152e-05 
 1108000  0.071982357  -0.63367255            0    -0.525726 -0.00017620385 
 1108400  0.071121433  -0.63218973            0  -0.52553425 -9.0663571e-05 
 1108800  0.072071541  -0.63445191            0  -0.52637163 -0.0001142838 
 1109200   0.07150854  -0.63404642            0  -0.52681042 5.8092951e-06 
 1109600  0.071073415  -0.63416501            0  -0.52758154 5.5169744e-05 
 1110000  0.071893425  -0.63669669            0  -0.52888352 -0.00017384258 
Loop time of 132.641 on 10 procs for 1000000 steps with 4000 atoms

Performance: 6513825.942 tau/day, 7539.150 timesteps/s
98.9% CPU use with 10 MPI tasks x no OpenMP threads

MPI task timing breakdown:
Section |  min time  |  avg time  |  max time  |%varavg| %total
---------------------------------------------------------------
Pair    | 28.121     | 49.11      | 74.918     | 169.9 | 37.02
Neigh   | 10.247     | 11.158     | 12.83      |  23.0 |  8.41
Comm    | 24.855     | 47.092     | 73.018     | 195.9 | 35.50
Output  | 1.0928     | 1.9154     | 2.8605     |  38.9 |  1.44
Modify  | 15.597     | 21.518     | 31.495     | 138.5 | 16.22
Other   |            | 1.847      |            |       |  1.39

Nlocal:    400 ave 676 max 194 min
Histogram: 2 1 0 0 3 3 0 0 0 1
Nghost:    263.3 ave 410 max 91 min
Histogram: 1 0 0 2 1 1 4 0 0 1
Neighs:    4747.9 ave 8767 max 1037 min
Histogram: 2 0 1 1 0 1 4 0 0 1

Total # of neighbors = 47479
Ave neighs/atom = 11.8697
Neighbor list builds = 96913
Dangerous builds = 73842
# unfix 1
# fix 1 all nvt temp 0.02 0.02 10.0
# run 1000000
Total wall time: 0:02:20
