LAMMPS Description

512 atoms
0 bonds
0 angles
0 dihedrals
0 impropers

1 atom types

-6.351 19.053 xlo xhi
-6.351 19.053 ylo yhi
-6.351 19.053 zlo zhi

Masses

1 18.0154 

Atoms

1 1 1 0.0 -6.351 -6.351 -6.351
2 2 1 0.0 -4.76325 -4.76325 -4.76325
3 3 1 0.0 -6.351 -3.1755 -3.1755
4 4 1 0.0 -1.58775 -4.76325 -1.58775
5 5 1 0.0 -4.76325 -1.58775 -1.58775
6 6 1 0.0 -1.58775 -1.58775 -4.76325
7 7 1 0.0 -3.1755 -6.351 -3.1755
8 8 1 0.0 -3.1755 -3.1755 -6.351
9 9 1 0.0 -6.351 -6.351 0.0
10 10 1 0.0 -4.76325 -4.76325 1.58775
11 11 1 0.0 -6.351 -3.1755 3.1755
12 12 1 0.0 -1.58775 -4.76325 4.76325
13 13 1 0.0 -4.76325 -1.58775 4.76325
14 14 1 0.0 -1.58775 -1.58775 1.58775
15 15 1 0.0 -3.1755 -6.351 3.1755
16 16 1 0.0 -3.1755 -3.1755 0.0
17 17 1 0.0 -6.351 -6.351 6.351
18 18 1 0.0 -4.76325 -4.76325 7.93875
19 19 1 0.0 -6.351 -3.1755 9.5265
20 20 1 0.0 -1.58775 -4.76325 11.11425
21 21 1 0.0 -4.76325 -1.58775 11.11425
22 22 1 0.0 -1.58775 -1.58775 7.93875
23 23 1 0.0 -3.1755 -6.351 9.5265
24 24 1 0.0 -3.1755 -3.1755 6.351
25 25 1 0.0 -6.351 -6.351 12.702
26 26 1 0.0 -4.76325 -4.76325 14.28975
27 27 1 0.0 -6.351 -3.1755 15.8775
28 28 1 0.0 -1.58775 -4.76325 17.46525
29 29 1 0.0 -4.76325 -1.58775 17.46525
30 30 1 0.0 -1.58775 -1.58775 14.28975
31 31 1 0.0 -3.1755 -6.351 15.8775
32 32 1 0.0 -3.1755 -3.1755 12.702
33 33 1 0.0 -6.351 0.0 -6.351
34 34 1 0.0 -4.76325 1.58775 -4.76325
35 35 1 0.0 -6.351 3.1755 -3.1755
36 36 1 0.0 -1.58775 1.58775 -1.58775
37 37 1 0.0 -4.76325 4.76325 -1.58775
38 38 1 0.0 -1.58775 4.76325 -4.76325
39 39 1 0.0 -3.1755 0.0 -3.1755
40 40 1 0.0 -3.1755 3.1755 -6.351
41 41 1 0.0 -6.351 0.0 0.0
42 42 1 0.0 -4.76325 1.58775 1.58775
43 43 1 0.0 -6.351 3.1755 3.1755
44 44 1 0.0 -1.58775 1.58775 4.76325
45 45 1 0.0 -4.76325 4.76325 4.76325
46 46 1 0.0 -1.58775 4.76325 1.58775
47 47 1 0.0 -3.1755 0.0 3.1755
48 48 1 0.0 -3.1755 3.1755 0.0
49 49 1 0.0 -6.351 0.0 6.351
50 50 1 0.0 -4.76325 1.58775 7.93875
51 51 1 0.0 -6.351 3.1755 9.5265
52 52 1 0.0 -1.58775 1.58775 11.11425
53 53 1 0.0 -4.76325 4.76325 11.11425
54 54 1 0.0 -1.58775 4.76325 7.93875
55 55 1 0.0 -3.1755 0.0 9.5265
56 56 1 0.0 -3.1755 3.1755 6.351
57 57 1 0.0 -6.351 0.0 12.702
58 58 1 0.0 -4.76325 1.58775 14.28975
59 59 1 0.0 -6.351 3.1755 15.8775
60 60 1 0.0 -1.58775 1.58775 17.46525
61 61 1 0.0 -4.76325 4.76325 17.46525
62 62 1 0.0 -1.58775 4.76325 14.28975
63 63 1 0.0 -3.1755 0.0 15.8775
64 64 1 0.0 -3.1755 3.1755 12.702
65 65 1 0.0 -6.351 6.351 -6.351
66 66 1 0.0 -4.76325 7.93875 -4.76325
67 67 1 0.0 -6.351 9.5265 -3.1755
68 68 1 0.0 -1.58775 7.93875 -1.58775
69 69 1 0.0 -4.76325 11.11425 -1.58775
70 70 1 0.0 -1.58775 11.11425 -4.76325
71 71 1 0.0 -3.1755 6.351 -3.1755
72 72 1 0.0 -3.1755 9.5265 -6.351
73 73 1 0.0 -6.351 6.351 0.0
74 74 1 0.0 -4.76325 7.93875 1.58775
75 75 1 0.0 -6.351 9.5265 3.1755
76 76 1 0.0 -1.58775 7.93875 4.76325
77 77 1 0.0 -4.76325 11.11425 4.76325
78 78 1 0.0 -1.58775 11.11425 1.58775
79 79 1 0.0 -3.1755 6.351 3.1755
80 80 1 0.0 -3.1755 9.5265 0.0
81 81 1 0.0 -6.351 6.351 6.351
82 82 1 0.0 -4.76325 7.93875 7.93875
83 83 1 0.0 -6.351 9.5265 9.5265
84 84 1 0.0 -1.58775 7.93875 11.11425
85 85 1 0.0 -4.76325 11.11425 11.11425
86 86 1 0.0 -1.58775 11.11425 7.93875
87 87 1 0.0 -3.1755 6.351 9.5265
88 88 1 0.0 -3.1755 9.5265 6.351
89 89 1 0.0 -6.351 6.351 12.702
90 90 1 0.0 -4.76325 7.93875 14.28975
91 91 1 0.0 -6.351 9.5265 15.8775
92 92 1 0.0 -1.58775 7.93875 17.46525
93 93 1 0.0 -4.76325 11.11425 17.46525
94 94 1 0.0 -1.58775 11.11425 14.28975
95 95 1 0.0 -3.1755 6.351 15.8775
96 96 1 0.0 -3.1755 9.5265 12.702
97 97 1 0.0 -6.351 12.702 -6.351
98 98 1 0.0 -4.76325 14.28975 -4.76325
99 99 1 0.0 -6.351 15.8775 -3.1755
100 100 1 0.0 -1.58775 14.28975 -1.58775
101 101 1 0.0 -4.76325 17.46525 -1.58775
102 102 1 0.0 -1.58775 17.46525 -4.76325
103 103 1 0.0 -3.1755 12.702 -3.1755
104 104 1 0.0 -3.1755 15.8775 -6.351
105 105 1 0.0 -6.351 12.702 0.0
106 106 1 0.0 -4.76325 14.28975 1.58775
107 107 1 0.0 -6.351 15.8775 3.1755
108 108 1 0.0 -1.58775 14.28975 4.76325
109 109 1 0.0 -4.76325 17.46525 4.76325
110 110 1 0.0 -1.58775 17.46525 1.58775
111 111 1 0.0 -3.1755 12.702 3.1755
112 112 1 0.0 -3.1755 15.8775 0.0
113 113 1 0.0 -6.351 12.702 6.351
114 114 1 0.0 -4.76325 14.28975 7.93875
115 115 1 0.0 -6.351 15.8775 9.5265
116 116 1 0.0 -1.58775 14.28975 11.11425
117 117 1 0.0 -4.76325 17.46525 11.11425
118 118 1 0.0 -1.58775 17.46525 7.93875
119 119 1 0.0 -3.1755 12.702 9.5265
120 120 1 0.0 -3.1755 15.8775 6.351
121 121 1 0.0 -6.351 12.702 12.702
122 122 1 0.0 -4.76325 14.28975 14.28975
123 123 1 0.0 -6.351 15.8775 15.8775
124 124 1 0.0 -1.58775 14.28975 17.46525
125 125 1 0.0 -4.76325 17.46525 17.46525
126 126 1 0.0 -1.58775 17.46525 14.28975
127 127 1 0.0 -3.1755 12.702 15.8775
128 128 1 0.0 -3.1755 15.8775 12.702
129 129 1 0.0 0.0 -6.351 -6.351
130 130 1 0.0 1.58775 -4.76325 -4.76325
131 131 1 0.0 0.0 -3.1755 -3.1755
132 132 1 0.0 4.76325 -4.76325 -1.58775
133 133 1 0.0 1.58775 -1.58775 -1.58775
134 134 1 0.0 4.76325 -1.58775 -4.76325
135 135 1 0.0 3.1755 -6.351 -3.1755
136 136 1 0.0 3.1755 -3.1755 -6.351
137 137 1 0.0 0.0 -6.351 0.0
138 138 1 0.0 1.58775 -4.76325 1.58775
139 139 1 0.0 0.0 -3.1755 3.1755
140 140 1 0.0 4.76325 -4.76325 4.76325
141 141 1 0.0 1.58775 -1.58775 4.76325
142 142 1 0.0 4.76325 -1.58775 1.58775
143 143 1 0.0 3.1755 -6.351 3.1755
144 144 1 0.0 3.1755 -3.1755 0.0
145 145 1 0.0 0.0 -6.351 6.351
146 146 1 0.0 1.58775 -4.76325 7.93875
147 147 1 0.0 0.0 -3.1755 9.5265
148 148 1 0.0 4.76325 -4.76325 11.11425
149 149 1 0.0 1.58775 -1.58775 11.11425
150 150 1 0.0 4.76325 -1.58775 7.93875
151 151 1 0.0 3.1755 -6.351 9.5265
152 152 1 0.0 3.1755 -3.1755 6.351
153 153 1 0.0 0.0 -6.351 12.702
154 154 1 0.0 1.58775 -4.76325 14.28975
155 155 1 0.0 0.0 -3.1755 15.8775
156 156 1 0.0 4.76325 -4.76325 17.46525
157 157 1 0.0 1.58775 -1.58775 17.46525
158 158 1 0.0 4.76325 -1.58775 14.28975
159 159 1 0.0 3.1755 -6.351 15.8775
160 160 1 0.0 3.1755 -3.1755 12.702
161 161 1 0.0 0.0 0.0 -6.351
162 162 1 0.0 1.58775 1.58775 -4.76325
163 163 1 0.0 0.0 3.1755 -3.1755
164 164 1 0.0 4.76325 1.58775 -1.58775
165 165 1 0.0 1.58775 4.76325 -1.58775
166 166 1 0.0 4.76325 4.76325 -4.76325
167 167 1 0.0 3.1755 0.0 -3.1755
168 168 1 0.0 3.1755 3.1755 -6.351
169 169 1 0.0 0.0 0.0 0.0
170 170 1 0.0 1.58775 1.58775 1.58775
171 171 1 0.0 0.0 3.1755 3.1755
172 172 1 0.0 4.76325 1.58775 4.76325
173 173 1 0.0 1.58775 4.76325 4.76325
174 174 1 0.0 4.76325 4.76325 1.58775
175 175 1 0.0 3.1755 0.0 3.1755
176 176 1 0.0 3.1755 3.1755 0.0
177 177 1 0.0 0.0 0.0 6.351
178 178 1 0.0 1.58775 1.58775 7.93875
179 179 1 0.0 0.0 3.1755 9.5265
180 180 1 0.0 4.76325 1.58775 11.11425
181 181 1 0.0 1.58775 4.76325 11.11425
182 182 1 0.0 4.76325 4.76325 7.93875
183 183 1 0.0 3.1755 0.0 9.5265
184 184 1 0.0 3.1755 3.1755 6.351
185 185 1 0.0 0.0 0.0 12.702
186 186 1 0.0 1.58775 1.58775 14.28975
187 187 1 0.0 0.0 3.1755 15.8775
188 188 1 0.0 4.76325 1.58775 17.46525
189 189 1 0.0 1.58775 4.76325 17.46525
190 190 1 0.0 4.76325 4.76325 14.28975
191 191 1 0.0 3.1755 0.0 15.8775
192 192 1 0.0 3.1755 3.1755 12.702
193 193 1 0.0 0.0 6.351 -6.351
194 194 1 0.0 1.58775 7.93875 -4.76325
195 195 1 0.0 0.0 9.5265 -3.1755
196 196 1 0.0 4.76325 7.93875 -1.58775
197 197 1 0.0 1.58775 11.11425 -1.58775
198 198 1 0.0 4.76325 11.11425 -4.76325
199 199 1 0.0 3.1755 6.351 -3.1755
200 200 1 0.0 3.1755 9.5265 -6.351
201 201 1 0.0 0.0 6.351 0.0
202 202 1 0.0 1.58775 7.93875 1.58775
203 203 1 0.0 0.0 9.5265 3.1755
204 204 1 0.0 4.76325 7.93875 4.76325
205 205 1 0.0 1.58775 11.11425 4.76325
206 206 1 0.0 4.76325 11.11425 1.58775
207 207 1 0.0 3.1755 6.351 3.1755
208 208 1 0.0 3.1755 9.5265 0.0
209 209 1 0.0 0.0 6.351 6.351
210 210 1 0.0 1.58775 7.93875 7.93875
211 211 1 0.0 0.0 9.5265 9.5265
212 212 1 0.0 4.76325 7.93875 11.11425
213 213 1 0.0 1.58775 11.11425 11.11425
214 214 1 0.0 4.76325 11.11425 7.93875
215 215 1 0.0 3.1755 6.351 9.5265
216 216 1 0.0 3.1755 9.5265 6.351
217 217 1 0.0 0.0 6.351 12.702
218 218 1 0.0 1.58775 7.93875 14.28975
219 219 1 0.0 0.0 9.5265 15.8775
220 220 1 0.0 4.76325 7.93875 17.46525
221 221 1 0.0 1.58775 11.11425 17.46525
222 222 1 0.0 4.76325 11.11425 14.28975
223 223 1 0.0 3.1755 6.351 15.8775
224 224 1 0.0 3.1755 9.5265 12.702
225 225 1 0.0 0.0 12.702 -6.351
226 226 1 0.0 1.58775 14.28975 -4.76325
227 227 1 0.0 0.0 15.8775 -3.1755
228 228 1 0.0 4.76325 14.28975 -1.58775
229 229 1 0.0 1.58775 17.46525 -1.58775
230 230 1 0.0 4.76325 17.46525 -4.76325
231 231 1 0.0 3.1755 12.702 -3.1755
232 232 1 0.0 3.1755 15.8775 -6.351
233 233 1 0.0 0.0 12.702 0.0
234 234 1 0.0 1.58775 14.28975 1.58775
235 235 1 0.0 0.0 15.8775 3.1755
236 236 1 0.0 4.76325 14.28975 4.76325
237 237 1 0.0 1.58775 17.46525 4.76325
238 238 1 0.0 4.76325 17.46525 1.58775
239 239 1 0.0 3.1755 12.702 3.1755
240 240 1 0.0 3.1755 15.8775 0.0
241 241 1 0.0 0.0 12.702 6.351
242 242 1 0.0 1.58775 14.28975 7.93875
243 243 1 0.0 0.0 15.8775 9.5265
244 244 1 0.0 4.76325 14.28975 11.11425
245 245 1 0.0 1.58775 17.46525 11.11425
246 246 1 0.0 4.76325 17.46525 7.93875
247 247 1 0.0 3.1755 12.702 9.5265
248 248 1 0.0 3.1755 15.8775 6.351
249 249 1 0.0 0.0 12.702 12.702
250 250 1 0.0 1.58775 14.28975 14.28975
251 251 1 0.0 0.0 15.8775 15.8775
252 252 1 0.0 4.76325 14.28975 17.46525
253 253 1 0.0 1.58775 17.46525 17.46525
254 254 1 0.0 4.76325 17.46525 14.28975
255 255 1 0.0 3.1755 12.702 15.8775
256 256 1 0.0 3.1755 15.8775 12.702
257 257 1 0.0 6.351 -6.351 -6.351
258 258 1 0.0 7.93875 -4.76325 -4.76325
259 259 1 0.0 6.351 -3.1755 -3.1755
260 260 1 0.0 11.11425 -4.76325 -1.58775
261 261 1 0.0 7.93875 -1.58775 -1.58775
262 262 1 0.0 11.11425 -1.58775 -4.76325
263 263 1 0.0 9.5265 -6.351 -3.1755
264 264 1 0.0 9.5265 -3.1755 -6.351
265 265 1 0.0 6.351 -6.351 0.0
266 266 1 0.0 7.93875 -4.76325 1.58775
267 267 1 0.0 6.351 -3.1755 3.1755
268 268 1 0.0 11.11425 -4.76325 4.76325
269 269 1 0.0 7.93875 -1.58775 4.76325
270 270 1 0.0 11.11425 -1.58775 1.58775
271 271 1 0.0 9.5265 -6.351 3.1755
272 272 1 0.0 9.5265 -3.1755 0.0
273 273 1 0.0 6.351 -6.351 6.351
274 274 1 0.0 7.93875 -4.76325 7.93875
275 275 1 0.0 6.351 -3.1755 9.5265
276 276 1 0.0 11.11425 -4.76325 11.11425
277 277 1 0.0 7.93875 -1.58775 11.11425
278 278 1 0.0 11.11425 -1.58775 7.93875
279 279 1 0.0 9.5265 -6.351 9.5265
280 280 1 0.0 9.5265 -3.1755 6.351
281 281 1 0.0 6.351 -6.351 12.702
282 282 1 0.0 7.93875 -4.76325 14.28975
283 283 1 0.0 6.351 -3.1755 15.8775
284 284 1 0.0 11.11425 -4.76325 17.46525
285 285 1 0.0 7.93875 -1.58775 17.46525
286 286 1 0.0 11.11425 -1.58775 14.28975
287 287 1 0.0 9.5265 -6.351 15.8775
288 288 1 0.0 9.5265 -3.1755 12.702
289 289 1 0.0 6.351 0.0 -6.351
290 290 1 0.0 7.93875 1.58775 -4.76325
291 291 1 0.0 6.351 3.1755 -3.1755
292 292 1 0.0 11.11425 1.58775 -1.58775
293 293 1 0.0 7.93875 4.76325 -1.58775
294 294 1 0.0 11.11425 4.76325 -4.76325
295 295 1 0.0 9.5265 0.0 -3.1755
296 296 1 0.0 9.5265 3.1755 -6.351
297 297 1 0.0 6.351 0.0 0.0
298 298 1 0.0 7.93875 1.58775 1.58775
299 299 1 0.0 6.351 3.1755 3.1755
300 300 1 0.0 11.11425 1.58775 4.76325
301 301 1 0.0 7.93875 4.76325 4.76325
302 302 1 0.0 11.11425 4.76325 1.58775
303 303 1 0.0 9.5265 0.0 3.1755
304 304 1 0.0 9.5265 3.1755 0.0
305 305 1 0.0 6.351 0.0 6.351
306 306 1 0.0 7.93875 1.58775 7.93875
307 307 1 0.0 6.351 3.1755 9.5265
308 308 1 0.0 11.11425 1.58775 11.11425
309 309 1 0.0 7.93875 4.76325 11.11425
310 310 1 0.0 11.11425 4.76325 7.93875
311 311 1 0.0 9.5265 0.0 9.5265
312 312 1 0.0 9.5265 3.1755 6.351
313 313 1 0.0 6.351 0.0 12.702
314 314 1 0.0 7.93875 1.58775 14.28975
315 315 1 0.0 6.351 3.1755 15.8775
316 316 1 0.0 11.11425 1.58775 17.46525
317 317 1 0.0 7.93875 4.76325 17.46525
318 318 1 0.0 11.11425 4.76325 14.28975
319 319 1 0.0 9.5265 0.0 15.8775
320 320 1 0.0 9.5265 3.1755 12.702
321 321 1 0.0 6.351 6.351 -6.351
322 322 1 0.0 7.93875 7.93875 -4.76325
323 323 1 0.0 6.351 9.5265 -3.1755
324 324 1 0.0 11.11425 7.93875 -1.58775
325 325 1 0.0 7.93875 11.11425 -1.58775
326 326 1 0.0 11.11425 11.11425 -4.76325
327 327 1 0.0 9.5265 6.351 -3.1755
328 328 1 0.0 9.5265 9.5265 -6.351
329 329 1 0.0 6.351 6.351 0.0
330 330 1 0.0 7.93875 7.93875 1.58775
331 331 1 0.0 6.351 9.5265 3.1755
332 332 1 0.0 11.11425 7.93875 4.76325
333 333 1 0.0 7.93875 11.11425 4.76325
334 334 1 0.0 11.11425 11.11425 1.58775
335 335 1 0.0 9.5265 6.351 3.1755
336 336 1 0.0 9.5265 9.5265 0.0
337 337 1 0.0 6.351 6.351 6.351
338 338 1 0.0 7.93875 7.93875 7.93875
339 339 1 0.0 6.351 9.5265 9.5265
340 340 1 0.0 11.11425 7.93875 11.11425
341 341 1 0.0 7.93875 11.11425 11.11425
342 342 1 0.0 11.11425 11.11425 7.93875
343 343 1 0.0 9.5265 6.351 9.5265
344 344 1 0.0 9.5265 9.5265 6.351
345 345 1 0.0 6.351 6.351 12.702
346 346 1 0.0 7.93875 7.93875 14.28975
347 347 1 0.0 6.351 9.5265 15.8775
348 348 1 0.0 11.11425 7.93875 17.46525
349 349 1 0.0 7.93875 11.11425 17.46525
350 350 1 0.0 11.11425 11.11425 14.28975
351 351 1 0.0 9.5265 6.351 15.8775
352 352 1 0.0 9.5265 9.5265 12.702
353 353 1 0.0 6.351 12.702 -6.351
354 354 1 0.0 7.93875 14.28975 -4.76325
355 355 1 0.0 6.351 15.8775 -3.1755
356 356 1 0.0 11.11425 14.28975 -1.58775
357 357 1 0.0 7.93875 17.46525 -1.58775
358 358 1 0.0 11.11425 17.46525 -4.76325
359 359 1 0.0 9.5265 12.702 -3.1755
360 360 1 0.0 9.5265 15.8775 -6.351
361 361 1 0.0 6.351 12.702 0.0
362 362 1 0.0 7.93875 14.28975 1.58775
363 363 1 0.0 6.351 15.8775 3.1755
364 364 1 0.0 11.11425 14.28975 4.76325
365 365 1 0.0 7.93875 17.46525 4.76325
366 366 1 0.0 11.11425 17.46525 1.58775
367 367 1 0.0 9.5265 12.702 3.1755
368 368 1 0.0 9.5265 15.8775 0.0
369 369 1 0.0 6.351 12.702 6.351
370 370 1 0.0 7.93875 14.28975 7.93875
371 371 1 0.0 6.351 15.8775 9.5265
372 372 1 0.0 11.11425 14.28975 11.11425
373 373 1 0.0 7.93875 17.46525 11.11425
374 374 1 0.0 11.11425 17.46525 7.93875
375 375 1 0.0 9.5265 12.702 9.5265
376 376 1 0.0 9.5265 15.8775 6.351
377 377 1 0.0 6.351 12.702 12.702
378 378 1 0.0 7.93875 14.28975 14.28975
379 379 1 0.0 6.351 15.8775 15.8775
380 380 1 0.0 11.11425 14.28975 17.46525
381 381 1 0.0 7.93875 17.46525 17.46525
382 382 1 0.0 11.11425 17.46525 14.28975
383 383 1 0.0 9.5265 12.702 15.8775
384 384 1 0.0 9.5265 15.8775 12.702
385 385 1 0.0 12.702 -6.351 -6.351
386 386 1 0.0 14.28975 -4.76325 -4.76325
387 387 1 0.0 12.702 -3.1755 -3.1755
388 388 1 0.0 17.46525 -4.76325 -1.58775
389 389 1 0.0 14.28975 -1.58775 -1.58775
390 390 1 0.0 17.46525 -1.58775 -4.76325
391 391 1 0.0 15.8775 -6.351 -3.1755
392 392 1 0.0 15.8775 -3.1755 -6.351
393 393 1 0.0 12.702 -6.351 0.0
394 394 1 0.0 14.28975 -4.76325 1.58775
395 395 1 0.0 12.702 -3.1755 3.1755
396 396 1 0.0 17.46525 -4.76325 4.76325
397 397 1 0.0 14.28975 -1.58775 4.76325
398 398 1 0.0 17.46525 -1.58775 1.58775
399 399 1 0.0 15.8775 -6.351 3.1755
400 400 1 0.0 15.8775 -3.1755 0.0
401 401 1 0.0 12.702 -6.351 6.351
402 402 1 0.0 14.28975 -4.76325 7.93875
403 403 1 0.0 12.702 -3.1755 9.5265
404 404 1 0.0 17.46525 -4.76325 11.11425
405 405 1 0.0 14.28975 -1.58775 11.11425
406 406 1 0.0 17.46525 -1.58775 7.93875
407 407 1 0.0 15.8775 -6.351 9.5265
408 408 1 0.0 15.8775 -3.1755 6.351
409 409 1 0.0 12.702 -6.351 12.702
410 410 1 0.0 14.28975 -4.76325 14.28975
411 411 1 0.0 12.702 -3.1755 15.8775
412 412 1 0.0 17.46525 -4.76325 17.46525
413 413 1 0.0 14.28975 -1.58775 17.46525
414 414 1 0.0 17.46525 -1.58775 14.28975
415 415 1 0.0 15.8775 -6.351 15.8775
416 416 1 0.0 15.8775 -3.1755 12.702
417 417 1 0.0 12.702 0.0 -6.351
418 418 1 0.0 14.28975 1.58775 -4.76325
419 419 1 0.0 12.702 3.1755 -3.1755
420 420 1 0.0 17.46525 1.58775 -1.58775
421 421 1 0.0 14.28975 4.76325 -1.58775
422 422 1 0.0 17.46525 4.76325 -4.76325
423 423 1 0.0 15.8775 0.0 -3.1755
424 424 1 0.0 15.8775 3.1755 -6.351
425 425 1 0.0 12.702 0.0 0.0
426 426 1 0.0 14.28975 1.58775 1.58775
427 427 1 0.0 12.702 3.1755 3.1755
428 428 1 0.0 17.46525 1.58775 4.76325
429 429 1 0.0 14.28975 4.76325 4.76325
430 430 1 0.0 17.46525 4.76325 1.58775
431 431 1 0.0 15.8775 0.0 3.1755
432 432 1 0.0 15.8775 3.1755 0.0
433 433 1 0.0 12.702 0.0 6.351
434 434 1 0.0 14.28975 1.58775 7.93875
435 435 1 0.0 12.702 3.1755 9.5265
436 436 1 0.0 17.46525 1.58775 11.11425
437 437 1 0.0 14.28975 4.76325 11.11425
438 438 1 0.0 17.46525 4.76325 7.93875
439 439 1 0.0 15.8775 0.0 9.5265
440 440 1 0.0 15.8775 3.1755 6.351
441 441 1 0.0 12.702 0.0 12.702
442 442 1 0.0 14.28975 1.58775 14.28975
443 443 1 0.0 12.702 3.1755 15.8775
444 444 1 0.0 17.46525 1.58775 17.46525
445 445 1 0.0 14.28975 4.76325 17.46525
446 446 1 0.0 17.46525 4.76325 14.28975
447 447 1 0.0 15.8775 0.0 15.8775
448 448 1 0.0 15.8775 3.1755 12.702
449 449 1 0.0 12.702 6.351 -6.351
450 450 1 0.0 14.28975 7.93875 -4.76325
451 451 1 0.0 12.702 9.5265 -3.1755
452 452 1 0.0 17.46525 7.93875 -1.58775
453 453 1 0.0 14.28975 11.11425 -1.58775
454 454 1 0.0 17.46525 11.11425 -4.76325
455 455 1 0.0 15.8775 6.351 -3.1755
456 456 1 0.0 15.8775 9.5265 -6.351
457 457 1 0.0 12.702 6.351 0.0
458 458 1 0.0 14.28975 7.93875 1.58775
459 459 1 0.0 12.702 9.5265 3.1755
460 460 1 0.0 17.46525 7.93875 4.76325
461 461 1 0.0 14.28975 11.11425 4.76325
462 462 1 0.0 17.46525 11.11425 1.58775
463 463 1 0.0 15.8775 6.351 3.1755
464 464 1 0.0 15.8775 9.5265 0.0
465 465 1 0.0 12.702 6.351 6.351
466 466 1 0.0 14.28975 7.93875 7.93875
467 467 1 0.0 12.702 9.5265 9.5265
468 468 1 0.0 17.46525 7.93875 11.11425
469 469 1 0.0 14.28975 11.11425 11.11425
470 470 1 0.0 17.46525 11.11425 7.93875
471 471 1 0.0 15.8775 6.351 9.5265
472 472 1 0.0 15.8775 9.5265 6.351
473 473 1 0.0 12.702 6.351 12.702
474 474 1 0.0 14.28975 7.93875 14.28975
475 475 1 0.0 12.702 9.5265 15.8775
476 476 1 0.0 17.46525 7.93875 17.46525
477 477 1 0.0 14.28975 11.11425 17.46525
478 478 1 0.0 17.46525 11.11425 14.28975
479 479 1 0.0 15.8775 6.351 15.8775
480 480 1 0.0 15.8775 9.5265 12.702
481 481 1 0.0 12.702 12.702 -6.351
482 482 1 0.0 14.28975 14.28975 -4.76325
483 483 1 0.0 12.702 15.8775 -3.1755
484 484 1 0.0 17.46525 14.28975 -1.58775
485 485 1 0.0 14.28975 17.46525 -1.58775
486 486 1 0.0 17.46525 17.46525 -4.76325
487 487 1 0.0 15.8775 12.702 -3.1755
488 488 1 0.0 15.8775 15.8775 -6.351
489 489 1 0.0 12.702 12.702 0.0
490 490 1 0.0 14.28975 14.28975 1.58775
491 491 1 0.0 12.702 15.8775 3.1755
492 492 1 0.0 17.46525 14.28975 4.76325
493 493 1 0.0 14.28975 17.46525 4.76325
494 494 1 0.0 17.46525 17.46525 1.58775
495 495 1 0.0 15.8775 12.702 3.1755
496 496 1 0.0 15.8775 15.8775 0.0
497 497 1 0.0 12.702 12.702 6.351
498 498 1 0.0 14.28975 14.28975 7.93875
499 499 1 0.0 12.702 15.8775 9.5265
500 500 1 0.0 17.46525 14.28975 11.11425
501 501 1 0.0 14.28975 17.46525 11.11425
502 502 1 0.0 17.46525 17.46525 7.93875
503 503 1 0.0 15.8775 12.702 9.5265
504 504 1 0.0 15.8775 15.8775 6.351
505 505 1 0.0 12.702 12.702 12.702
506 506 1 0.0 14.28975 14.28975 14.28975
507 507 1 0.0 12.702 15.8775 15.8775
508 508 1 0.0 17.46525 14.28975 17.46525
509 509 1 0.0 14.28975 17.46525 17.46525
510 510 1 0.0 17.46525 17.46525 14.28975
511 511 1 0.0 15.8775 12.702 15.8775
512 512 1 0.0 15.8775 15.8775 12.702
